  ABINIT 8.0.8
  
  Give name for formatted input file: 
abinit.in
  Give name for formatted output file:
abnt.out
  Give root name for generic input files:
abnti
  Give root name for generic output files:
abnto
  Give root name for generic temporary files:
abnt

.Version 8.0.8 of ABINIT 
.(MPI version, prepared for a x86_64_linux_intel14.0 computer) 

.Copyright (C) 1998-2016 ABINIT group . 
 ABINIT comes with ABSOLUTELY NO WARRANTY.
 It is free software, and you are welcome to redistribute it
 under certain conditions (GNU General Public License,
 see ~abinit/COPYING or http://www.gnu.org/copyleft/gpl.txt).

 ABINIT is a project of the Universite Catholique de Louvain,
 Corning Inc. and other collaborators, see ~abinit/doc/developers/contributors.txt .
 Please read ~abinit/doc/users/acknowledgments.html for suggested
 acknowledgments of the ABINIT effort.
 For more information, see http://www.abinit.org .

.Starting date : Tue 14 Nov 2017.
- ( at 18h35 )
  
 
 ++++++++++++++++++++++++++++++++++++++++++++++++++++++++++++++++++++++++++++++
 
 === Build Information === 
  Version       : 8.0.8
  Build target  : x86_64_linux_intel14.0
  Build date    : 20160908
 
 === Compiler Suite === 
  C compiler       : intel14.0
  C++ compiler     : gnu14.0
  Fortran compiler : intel14.0
  CFLAGS           :   -O2 -vec-report0  -fp-model precise -fp-model source
  CXXFLAGS         :   -O2 -mtune=native -march=native
  FCFLAGS          :   -extend-source -vec-report0 -noaltparam -nofpscomp  -fp-model precise -fp-model source
  FC_LDFLAGS       :    -static-intel -static-libgcc
 
 === Optimizations === 
  Debug level        : no
  Optimization level : standard
  Architecture       : intel_xeon
 
 === Multicore === 
  Parallel build : yes
  Parallel I/O   : yes
  openMP support : no
  GPU support    : no
 
 === Connectors / Fallbacks === 
  Connectors on : yes
  Fallbacks on  : yes
  DFT flavor    : libxc+wannier90-fallback
  FFT flavor    : dfti
  LINALG flavor : mkl
  MATH flavor   : none
  TIMER flavor  : abinit
  TRIO flavor   : none
 
 === Experimental features === 
  Bindings            : @enable_bindings@
  Exports             : no
  GW double-precision : no
 
 ++++++++++++++++++++++++++++++++++++++++++++++++++++++++++++++++++++++++++++++
 

 ++++++++++++++++++++++++++++++++++++++++++++++++++++++++++++++++++++++++++++++
 Default optimizations:
   -O2 -xHost


 Optimizations for 20_datashare:
   -O0


 ++++++++++++++++++++++++++++++++++++++++++++++++++++++++++++++++++++++++++++++


 ++++++++++++++++++++++++++++++++++++++++++++++++++++++++++++++++++++++++++++++
 CPP options activated during the build:

                  CC_INTEL                   CXX_GNU                  FC_INTEL
 
            HAVE_DFT_LIBXC        HAVE_DFT_WANNIER90 HAVE_FC_ALLOCATABLE_DT...
 
             HAVE_FC_ASYNC  HAVE_FC_COMMAND_ARGUMENT        HAVE_FC_CONTIGUOUS
 
           HAVE_FC_CPUTIME              HAVE_FC_EXIT             HAVE_FC_FLUSH
 
             HAVE_FC_GAMMA   HAVE_FC_IEEE_EXCEPTIONS             HAVE_FC_IOMSG
 
     HAVE_FC_ISO_C_BINDING  HAVE_FC_ISO_FORTRAN_2008        HAVE_FC_LONG_LINES
 
        HAVE_FC_MOVE_ALLOC           HAVE_FC_PRIVATE         HAVE_FC_PROTECTED
 
         HAVE_FC_STREAM_IO                  HAVE_FFT             HAVE_FFT_DFTI
 
              HAVE_FFT_MPI           HAVE_FFT_SERIAL        HAVE_LIBPAW_ABINIT
 
      HAVE_LIBTETRA_ABINIT               HAVE_LINALG        HAVE_LINALG_SERIAL
 
                  HAVE_MPI                 HAVE_MPI2        HAVE_MPI_INTEGER16
 
               HAVE_MPI_IO HAVE_MPI_TYPE_CREATE_S...                HAVE_NUMPY
 
             HAVE_OS_LINUX                HAVE_TIMER         HAVE_TIMER_ABINIT
 
            HAVE_TIMER_MPI         HAVE_TIMER_SERIAL              USE_MACROAVE
 
 ++++++++++++++++++++++++++++++++++++++++++++++++++++++++++++++++++++++++++++++

- input  file    -> abinit.in
- output file    -> abnt.out
- root for input  files -> abnti
- root for output files -> abnto
 
-instrng: 27 lines of input have been read from file abinit.in
 
  status : statnu, output_rate, shift_rate=           1           0           1
 level,routine=           3 init istatr   
 active(level)=           1
 counter,actual_counter(level,1:2)=           0           0           0
 List of active levels :
  Active level number=           3

 Please give name of formatted atomic psp file
 iofn2 : for atom type 1, psp file is /home/brockc/local/abinit/pseudopotentials/JTH-LDA-atomicdata-1.0/Li.LDA_PW-JTH.xml
- inpspheads : Reading pseudopotential header in XML form from /home/brockc/local/abinit/pseudopotentials/JTH-LDA-atomicdata-1.0/Li.LDA_PW-JTH.xml
 
 inpspheads: deduce mpsang = 2, n1xccc = 1.
 
 invars1m : enter jdtset= 0
 invars1 : treat image number: 1
 
 symlatt : the Bravais lattice is cI (body-centered cubic)
  xred   is defined in input file
 ingeo : takes atomic coordinates from input array xred
 
 symlatt : the Bravais lattice is cI (body-centered cubic)
 
 symlatt : the Bravais lattice is cI (body-centered cubic)
 symspgr : spgroup= 229  Im -3 m   (=Oh^9)
 ingeo : angdeg(1:3)=  109.47122063  109.47122063  109.47122063
       Simple Lattice Grid
 invars2: take the default value of fband=  1.25000000E-01
       Simple Lattice Grid
 
 invars2 : Printing the k point grid (values of kptns - max 100 of them)
 nkpt=       1
     ikpt istwfk    wtk       --------- reduced coordinates ---------  --------- cartesian coordinates ---------
       1     9  1.000000E+00  5.000000E-01  5.000000E-01  5.000000E-01  3.030303E-01  3.030303E-01  3.030303E-01
 
 invars2 : Printing the k point grid from kptrlatt, shifted with shiftk and qptn, in the full Brillouin zone.
   Maximum 100 of them. No use of symmetries
 nkpt_fullbz=       1
     ikpt      --------------- reduced coordinates ---------------  --------- cartesian coordinates ---------
       1       5.0000000000E-01  5.0000000000E-01  5.0000000000E-01  3.030303E-01  3.030303E-01  3.030303E-01
 

  chkneu : enter, dtset%nelect=   3.00000000000000     
  occopt,dtset%nsppol,dtset%nspden=           1           1           1
  maxocc,nocc,occlast=   2.00000000000000                2
   1.00000000000000     
 chkneu : initialized the occupation numbers for occopt=    1, spin-unpolarized or antiferromagnetic case :
  2.00  1.00  0.00
mpi_setup: mkmem  undefined in the input file.Use default mkmem  = nkpt
 mpi_setup: With nkpt_me=1 and mkmem  = 1, ground state wf handled in core.
mpi_setup: mkqmem undefined in the input file.Use default mkqmem = nkpt
 mpi_setup: With nkpt_me=1 and mkqmem = 1, ground state wf handled in core.
mpi_setup: mk1mem undefined in the input file.Use default mk1mem = nkpt
 mpi_setup: With nkpt_me=1 and mk1mem = 1, ground state wf handled in core.
getng is called for the coarse grid:
 For input ecut=  2.939946E+01 best grid ngfft=      15      15      15
       max ecut=  2.990789E+01
 
 ==== FFT mesh ====
  FFT mesh divisions ........................    15   15   15
  Augmented FFT divisions ...................    15   15   15
  FFT algorithm .............................   512
  FFT cache size ............................    16
 getmpw: optimal value of mpw= 58
getng is called for the fine grid:
 Using supplied coarse mesh as initial guess.
 For input ecut=  8.819838E+01 best grid ngfft=      27      27      27
       max ecut=  1.024119E+02
 
 ==== FFT mesh ====
  FFT mesh divisions ........................    27   27   27
  Augmented FFT divisions ...................    27   27   27
  FFT algorithm .............................   512
  FFT cache size ............................    16
 
 Symmetries : space group Im -3 m (#229); Bravais cI (body-center cubic)
 
 getdim_nloc : deduce lmnmax  =   9, lnmax  =   5,
                      lmnmaxso=   9, lnmaxso=   5.
memory : analysis of memory needs
================================================================================
 Values of the parameters that define the memory need of the present run
     intxc =       0    ionmov =       0      iscf =      17    lmnmax =       9
     lnmax =       5     mgfft =      15  mpssoang =       2    mqgrid =    3001
     natom =       1  nloc_mem =       2    nspden =       1   nspinor =       1
    nsppol =       1      nsym =      48    n1xccc =       1    ntypat =       1
    occopt =       1   xclevel =       1
-    mband =           3        mffmem =           1         mkmem =           1
       mpw =          58          nfft =        3375          nkpt =           1
 PAW method is used; the additional fine FFT grid is defined by:
   mgfftf=        27    nfftf =     19683
================================================================================
P This job should need less than                       5.128 Mbytes of memory.
  Rough estimation (10% accuracy) of disk space for files :
_ WF disk file :      0.005 Mbytes ; DEN or POT disk file :      0.152 Mbytes.
================================================================================
 
 Biggest array : pawfgrtab%gylm(gr), with      3.0034 MBytes.
 memana : allocated an array of      3.003 Mbytes, for testing purposes.
 memana: allocated       5.128Mbytes, for testing purposes. 
 The job will continue.
--------------------------------------------------------------------------------
------------- Echo of variables that govern the present computation ------------
--------------------------------------------------------------------------------
-
- outvars: echo of selected default values                                      
-   iomode0 =  0 , fftalg0 =512 , wfoptalg0 = 10
-
- outvars: echo of global parameters not present in the input file              
-  max_nthreads =    0
-
 -outvars: echo values of preprocessed input variables --------
            acell      3.3000000000E+00  3.3000000000E+00  3.3000000000E+00 Bohr
              amu      6.94100000E+00
             ecut      2.93994603E+01 Hartree
-          fftalg         512
           istwfk        9
              ixc       -1012
              kpt      5.00000000E-01  5.00000000E-01  5.00000000E-01
         kptrlatt        1    0    0      0    1    0      0    0    1
          kptrlen      2.85788383E+00
P           mkmem           1
            natom           1
            nband           3
            ngfft          15      15      15
          ngfftdg          27      27      27
             nkpt           1
            nstep         100
             nsym          48
           ntypat           1
              occ      2.000000  1.000000  0.000000
        pawecutdg      8.81983810E+01 Hartree
            rprim      5.0000000000E-01  5.0000000000E-01 -5.0000000000E-01
                      -5.0000000000E-01  5.0000000000E-01  5.0000000000E-01
                       5.0000000000E-01 -5.0000000000E-01  5.0000000000E-01
           shiftk      5.00000000E-01  5.00000000E-01  5.00000000E-01
          spgroup         229
           symrel      1  0  0   0  1  0   0  0  1      -1  0  0   0 -1  0   0  0 -1
                      -1 -1 -1   0  0  1   0  1  0       1  1  1   0  0 -1   0 -1  0
                       0  1  0   1  0  0  -1 -1 -1       0 -1  0  -1  0  0   1  1  1
                       0  0  1  -1 -1 -1   1  0  0       0  0 -1   1  1  1  -1  0  0
                       0  1  0   1  0  0   0  0  1       0 -1  0  -1  0  0   0  0 -1
                      -1 -1 -1   0  0  1   1  0  0       1  1  1   0  0 -1  -1  0  0
                       1  0  0   0  1  0  -1 -1 -1      -1  0  0   0 -1  0   1  1  1
                       0  0  1  -1 -1 -1   0  1  0       0  0 -1   1  1  1   0 -1  0
                      -1 -1 -1   1  0  0   0  0  1       1  1  1  -1  0  0   0  0 -1
                       0  1  0   0  0  1   1  0  0       0 -1  0   0  0 -1  -1  0  0
                       1  0  0  -1 -1 -1   0  1  0      -1  0  0   1  1  1   0 -1  0
                       0  0  1   0  1  0  -1 -1 -1       0  0 -1   0 -1  0   1  1  1
                       1  0  0  -1 -1 -1   0  0  1      -1  0  0   1  1  1   0  0 -1
                       0  1  0   0  0  1  -1 -1 -1       0 -1  0   0  0 -1   1  1  1
                      -1 -1 -1   1  0  0   0  1  0       1  1  1  -1  0  0   0 -1  0
                       0  0  1   0  1  0   1  0  0       0  0 -1   0 -1  0  -1  0  0
                       0  1  0  -1 -1 -1   0  0  1       0 -1  0   1  1  1   0  0 -1
                       1  0  0   0  0  1  -1 -1 -1      -1  0  0   0  0 -1   1  1  1
                      -1 -1 -1   0  1  0   1  0  0       1  1  1   0 -1  0  -1  0  0
                       0  0  1   1  0  0   0  1  0       0  0 -1  -1  0  0   0 -1  0
                      -1 -1 -1   0  1  0   0  0  1       1  1  1   0 -1  0   0  0 -1
                       1  0  0   0  0  1   0  1  0      -1  0  0   0  0 -1   0 -1  0
                       0  1  0  -1 -1 -1   1  0  0       0 -1  0   1  1  1  -1  0  0
                       0  0  1   1  0  0  -1 -1 -1       0  0 -1  -1  0  0   1  1  1
           toldfe      1.00000000E-05 Hartree
            typat      1
           useylm           1
            znucl        3.00000
 
================================================================================
 
 chkinp: Checking input parameters for consistency.
 DATA TYPE INFORMATION: 
 REAL:      Data type name: REAL(DP) 
            Kind value:      8
            Precision:      15
            Smallest nonnegligible quantity relative to 1:  0.22204460E-15
            Smallest positive number:                       0.22250739-307
            Largest representable number:                   0.17976931+309
 INTEGER:   Data type name: INTEGER(default) 
            Kind value: 4
            Bit size:   32
            Largest representable number: 2147483647
 LOGICAL:   Data type name: LOGICAL 
            Kind value: 4
 CHARACTER: Data type name: CHARACTER             Kind value: 1

  ==== OpenMP parallelism is OFF ====
 
  ==== Using MPI-2 specifications ==== 
  MPI-IO support is ON
  xmpi_tag_ub ................   2147483647
  xmpi_bsize_ch ..............            1
  xmpi_bsize_int .............            4
  xmpi_bsize_sp ..............            4
  xmpi_bsize_dp ..............            8
  xmpi_bsize_spc .............            8
  xmpi_bsize_dpc .............           16
  xmpio_bsize_frm ............            4
  xmpi_address_kind ..........            8
  xmpi_offset_kind ...........            8
  MPI_WTICK ..................   1.000000000000000E-006
 
================================================================================
== DATASET  1 ==================================================================
-   nproc =    1
 
 
 getdim_nloc : deduce lmnmax  =   9, lnmax  =   5,
                      lmnmaxso=   9, lnmaxso=   5.
Slater exchange
PAM Dirac, Proceedings of the Cambridge Philosophical Society 26, 376 (1930)
F Bloch, Zeitschrift fuer Physik 57, 545 (1929)
Perdew & Wang
JP Perdew and Y Wang, Phys. Rev. B 45, 13244 (1992)
 Unit cell volume ucvol=  1.7968500E+01 bohr^3
 Angles (23,13,12)=  1.09471221E+02  1.09471221E+02  1.09471221E+02 degrees
 
 Coarse grid specifications (used for wave-functions):
 
 getcut: wavevector=  0.0000  0.0000  0.0000  ngfft=  15  15  15
         ecut(hartree)=     29.399   => boxcut(ratio)=   2.01722
 
 Fine grid specifications (used for densities):
 
 getcut: wavevector=  0.0000  0.0000  0.0000  ngfft=  27  27  27
         ecut(hartree)=     88.198   => boxcut(ratio)=   2.15514
- pspini: atom type   1  psp file is /home/brockc/local/abinit/pseudopotentials/JTH-LDA-atomicdata-1.0/Li.LDA_PW-JTH.xml
- pspatm: opening atomic psp file    /home/brockc/local/abinit/pseudopotentials/JTH-LDA-atomicdata-1.0/Li.LDA_PW-JTH.xml
- pspatm : Reading pseudopotential header in XML form from /home/brockc/local/abinit/pseudopotentials/JTH-LDA-atomicdata-1.0/Li.LDA_PW-JTH.xml
 Pseudopotential format is: paw10
 basis_size (lnmax)=  5 (lmn_size=  9), orbitals=   0   0   0   1   1
 Spheres core radius: rc_sph= 1.60264751
 1 radial meshes are used:
  - mesh 1: r(i)=AA*[exp(BB*(i-1))-1], size=2001 , AA= 0.17851E-02 BB= 0.53552E-02
 Shapefunction is BESSEL type: shapef(r,l)=aa(1,l)*jl(q(1,l)*r)+aa(2,l)*jl(q(2,l)*r)
 Radius for shape functions =  1.30023672
 mmax= 2001
 Radial grid used for partial waves is grid 1
 Radial grid used for projectors is grid 1
 Radial grid used for (t)core density is grid 1
 Radial grid used for Vloc is grid 1
 Radial grid used for pseudo valence density is grid 1
 
--- !COMMENT
src_file: m_pawpsp.F90
src_line: 1875
message: |
    
      Mesh size for Vloc has been set to 1742 to avoid numerical noise.
...
 
 Compensation charge density is not taken into account in XC energy/potential
 beta integral value:      -0.603111E+01
 pspatm: atomic psp has been read  and splines computed
 
   1.80933409E+01                                ecore*ucvol(ha*bohr**3)
 ==== Info on pseudopotentials ====
  PAW calculation
  Number of pseudopotentials ..    1
  Number of types of atoms   ..    1
  Scalar calculation (no spin-orbit term)
  Nonlocal part applied using real spherical harmonics
  Highest angular momentum +1 .......   2
  Max number of (l,n)   components ..   5
  Max number of (l,m,n) components ..   9
 
 Pseudo-Core Charge Info: 
   Number of radial points for pseudo-core charge ..    1
   XC core-correction treatment (optnlxccc) ........    1
   Radius for pseudo-core charge for each type ..... 
 
  - Atom type    1 has pseudo-core radius .. 80.0000
 
 Info on the Q-grid used for form factors in spline form: 
   Number of q-points for radial functions ffspl ..   3001
   Number of q-points for vlspl ...................   3001
   vloc is computed in Reciprocal Space
 
  XC functional for type 1 is -1012
 
 wfconv:     3 bands initialized randomly with npw=    58, for ikpt=     1
_setup2: Arith. and geom. avg. npw (full set) are     116.000     116.000
 initro: for itypat=  1, take pseudo charge density from pp file
 
================================================================================
 FFT (fine) grid used in SCF cycle:
 
 getcut: wavevector=  0.0000  0.0000  0.0000  ngfft=  27  27  27
         ecut(hartree)=     88.198   => boxcut(ratio)=   2.15514
 
 chkpawovlp : WARNING -
  PAW SPHERES ARE OVERLAPPING !
   Distance between atoms   1 and   1 is  :   2.85788
   PAW radius of the sphere around atom   1 is:   1.60265
   PAW radius of the sphere around atom   1 is:   1.60265
   This leads to a (voluminal) overlap ratio of  1.70 %
 
  => Note that other spheres are overlapping !
 
       Overlap ratio seems to be acceptable (less than value
       of "pawovlp" input parameter): execution will continue.
       But be aware that results might be approximate,
       and even inaccurate (depending on your physical system) !
 average electrostatic smooth potential [Ha] , [eV]      0.000000        0.000000
 
 ****** Psp strength Dij in Ha (atom      1) *****
  -1.81445   0.15366   0.25095   0.00000  -0.00000  -0.00000   0.00000  -0.00000  -0.00000
   0.15366  -0.00089   0.04528  -0.00000   0.00000   0.00000  -0.00000   0.00000   0.00000
   0.25095   0.04528   0.32414  -0.00000   0.00000   0.00000  -0.00000   0.00000   0.00000
   0.00000  -0.00000  -0.00000  -0.00611   0.00000  -0.00000  -0.02355   0.00000  -0.00000
  -0.00000   0.00000   0.00000   0.00000  -0.00611   0.00000   0.00000  -0.02355   0.00000
  -0.00000   0.00000   0.00000  -0.00000   0.00000  -0.00611  -0.00000   0.00000  -0.02355
   0.00000  -0.00000  -0.00000  -0.02355   0.00000  -0.00000  -0.09080   0.00000  -0.00000
  -0.00000   0.00000   0.00000   0.00000  -0.02355   0.00000   0.00000  -0.09080   0.00000
  -0.00000   0.00000   0.00000  -0.00000   0.00000  -0.02355  -0.00000   0.00000  -0.09080
 
 
 ITER STEP NUMBER     1
 vtorho : nnsclo_now=2, note that nnsclo,dbl_nnsclo,istep=0 0 1
 
 *********** RHOIJ (atom   1) **********
   1.78634  -2.26245   0.34034   0.00000   0.00000   0.00000   0.00000   0.00000   0.00000
  -2.26245   3.04624  -0.48753   0.00000   0.00000   0.00000   0.00000   0.00000   0.00000
   0.34034  -0.48753   0.08249   0.00000   0.00000   0.00000   0.00000   0.00000   0.00000
   0.00000   0.00000   0.00000 *********   0.00000   0.00000 *********   0.00000   0.00000
   0.00000   0.00000   0.00000   0.00000 *********   0.00000   0.00000 *********   0.00000
   0.00000   0.00000   0.00000   0.00000   0.00000 *********   0.00000   0.00000 *********
   0.00000   0.00000   0.00000 *********   0.00000   0.00000 191.09984   0.00000   0.00000
   0.00000   0.00000   0.00000   0.00000 *********   0.00000   0.00000 191.09984   0.00000
   0.00000   0.00000   0.00000   0.00000   0.00000 *********   0.00000   0.00000 191.09984
 pawio_print_ij: WARNING -
  The matrix seems to have high value(s) !
  ( 12 components have a value greater than   10.0).
  It can cause instabilities during SCF convergence.
  Action: you should check your atomic dataset (psp file)
          and look for "high" projector functions...
 
 Total charge density [el/Bohr^3]
      Maximum=    1.6825E+00  at reduced coord.    0.0000    0.0000    0.0000
      Minimum=    7.0922E-03  at reduced coord.    0.5185    0.4815    0.0000
   Integrated=    3.0000E+00
 ETOT  1  -6.1338114502084    -6.134E+00 1.766E-01 1.462E+01
 scprqt: <Vxc>= -5.1031431E-01 hartree
 
Simple mixing update:
  residual square of the potential :  2.973718178328980E-004
 scfcv: previous iteration took 00 [s]
 average electrostatic smooth potential [Ha] , [eV]      0.000000        0.000000
 
 ****** Psp strength Dij in Ha (atom      1) *****
  -1.76885   0.14557   0.22215   0.00000  -0.00000  -0.00000   0.00000  -0.00000  -0.00000
   0.14557   0.00049   0.05013  -0.00000   0.00000   0.00000  -0.00000   0.00000   0.00000
   0.22215   0.05013   0.34095  -0.00000   0.00000   0.00000  -0.00000   0.00000   0.00000
   0.00000  -0.00000  -0.00000  -0.00615  -0.00000  -0.00000  -0.02372  -0.00000  -0.00000
  -0.00000   0.00000   0.00000  -0.00000  -0.00615  -0.00000  -0.00000  -0.02372  -0.00000
  -0.00000   0.00000   0.00000  -0.00000  -0.00000  -0.00615  -0.00000  -0.00000  -0.02372
   0.00000  -0.00000  -0.00000  -0.02372  -0.00000  -0.00000  -0.09145  -0.00000  -0.00000
  -0.00000   0.00000   0.00000  -0.00000  -0.02372  -0.00000  -0.00000  -0.09145  -0.00000
  -0.00000   0.00000   0.00000  -0.00000  -0.00000  -0.02372  -0.00000  -0.00000  -0.09145
 
 
 ITER STEP NUMBER     2
 vtorho : nnsclo_now=2, note that nnsclo,dbl_nnsclo,istep=0 0 2
 
 *********** RHOIJ (atom   1) **********
   1.73507  -2.82260   0.48300   0.00000   0.00000   0.00000   0.00000   0.00000   0.00000
  -2.82260   4.59181  -0.78575   0.00000   0.00000   0.00000   0.00000   0.00000   0.00000
   0.48300  -0.78575   0.13446   0.00000   0.00000   0.00000   0.00000   0.00000   0.00000
   0.00000   0.00000   0.00000 *********   0.00000   0.00000 *********   0.00000   0.00000
   0.00000   0.00000   0.00000   0.00000 *********   0.00000   0.00000 *********   0.00000
   0.00000   0.00000   0.00000   0.00000   0.00000 *********   0.00000   0.00000 *********
   0.00000   0.00000   0.00000 *********   0.00000   0.00000 187.23143   0.00000   0.00000
   0.00000   0.00000   0.00000   0.00000 *********   0.00000   0.00000 187.23143   0.00000
   0.00000   0.00000   0.00000   0.00000   0.00000 *********   0.00000   0.00000 187.23143
 pawio_print_ij: WARNING -
  The matrix seems to have high value(s) !
  ( 12 components have a value greater than   10.0).
  It can cause instabilities during SCF convergence.
  Action: you should check your atomic dataset (psp file)
          and look for "high" projector functions...
 
 Total charge density [el/Bohr^3]
      Maximum=    1.6664E+00  at reduced coord.    0.0000    0.0000    0.0000
      Minimum=    6.5655E-03  at reduced coord.    0.5185    0.4815    0.0000
   Integrated=    3.0000E+00
 ETOT  2  -6.1390263416953    -5.215E-03 2.662E-07 1.860E+00
 scprqt: <Vxc>= -4.9752661E-01 hartree
 
 Pulay update with  1 previous iterations:
 mixing of old trial potential : alpha(m:m-4)=   1.53     -0.530
 scfcv: previous iteration took 00 [s]
 average electrostatic smooth potential [Ha] , [eV]      0.000000        0.000000
 
 ****** Psp strength Dij in Ha (atom      1) *****
  -1.75148   0.14249   0.21117   0.00000  -0.00000  -0.00000   0.00000  -0.00000  -0.00000
   0.14249   0.00102   0.05197  -0.00000   0.00000   0.00000  -0.00000   0.00000   0.00000
   0.21117   0.05197   0.34729  -0.00000   0.00000   0.00000  -0.00000   0.00000   0.00000
   0.00000  -0.00000  -0.00000  -0.00616   0.00000   0.00000  -0.02377   0.00000   0.00000
  -0.00000   0.00000   0.00000   0.00000  -0.00616   0.00000   0.00000  -0.02377   0.00000
  -0.00000   0.00000   0.00000   0.00000   0.00000  -0.00616   0.00000   0.00000  -0.02377
   0.00000  -0.00000  -0.00000  -0.02377   0.00000   0.00000  -0.09163   0.00000   0.00000
  -0.00000   0.00000   0.00000   0.00000  -0.02377   0.00000   0.00000  -0.09163   0.00000
  -0.00000   0.00000   0.00000   0.00000   0.00000  -0.02377   0.00000   0.00000  -0.09163
 
 
 ITER STEP NUMBER     3
 vtorho : nnsclo_now=1, note that nnsclo,dbl_nnsclo,istep=0 0 3
 
 *********** RHOIJ (atom   1) **********
   1.72401  -2.95137   0.51866   0.00000   0.00000   0.00000   0.00000   0.00000   0.00000
  -2.95137   5.05253  -0.88791   0.00000   0.00000   0.00000   0.00000   0.00000   0.00000
   0.51866  -0.88791   0.15604   0.00000   0.00000   0.00000   0.00000   0.00000   0.00000
   0.00000   0.00000   0.00000 *********   0.00000   0.00000 *********   0.00000   0.00000
   0.00000   0.00000   0.00000   0.00000 *********   0.00000   0.00000 *********   0.00000
   0.00000   0.00000   0.00000   0.00000   0.00000 *********   0.00000   0.00000 *********
   0.00000   0.00000   0.00000 *********   0.00000   0.00000 183.81201   0.00000   0.00000
   0.00000   0.00000   0.00000   0.00000 *********   0.00000   0.00000 183.81201   0.00000
   0.00000   0.00000   0.00000   0.00000   0.00000 *********   0.00000   0.00000 183.81201
 pawio_print_ij: WARNING -
  The matrix seems to have high value(s) !
  ( 12 components have a value greater than   10.0).
  It can cause instabilities during SCF convergence.
  Action: you should check your atomic dataset (psp file)
          and look for "high" projector functions...
 
 Total charge density [el/Bohr^3]
      Maximum=    1.6615E+00  at reduced coord.    0.0000    0.0000    0.0000
      Minimum=    6.5989E-03  at reduced coord.    0.5185    0.4815    0.0000
   Integrated=    3.0000E+00
 ETOT  3  -6.1395743585603    -5.480E-04 1.642E-07 4.977E-03
 scprqt: <Vxc>= -4.8843554E-01 hartree
 
 Pulay update with  2 previous iterations:
 mixing of old trial potential : alpha(m:m-4)=   1.26     -0.397      0.139
 scfcv: previous iteration took 00 [s]
 average electrostatic smooth potential [Ha] , [eV]      0.000000        0.000000
 
 ****** Psp strength Dij in Ha (atom      1) *****
  -1.75338   0.14283   0.21236   0.00000  -0.00000  -0.00000   0.00000  -0.00000  -0.00000
   0.14283   0.00096   0.05176  -0.00000   0.00000   0.00000  -0.00000   0.00000   0.00000
   0.21236   0.05176   0.34656  -0.00000   0.00000   0.00000  -0.00000   0.00000   0.00000
   0.00000  -0.00000  -0.00000  -0.00616   0.00000   0.00000  -0.02376   0.00000   0.00000
  -0.00000   0.00000   0.00000   0.00000  -0.00616   0.00000   0.00000  -0.02376   0.00000
  -0.00000   0.00000   0.00000   0.00000   0.00000  -0.00616   0.00000   0.00000  -0.02376
   0.00000  -0.00000  -0.00000  -0.02376   0.00000   0.00000  -0.09160   0.00000   0.00000
  -0.00000   0.00000   0.00000   0.00000  -0.02376   0.00000   0.00000  -0.09160   0.00000
  -0.00000   0.00000   0.00000   0.00000   0.00000  -0.02376   0.00000   0.00000  -0.09160
 
 
 ITER STEP NUMBER     4
 vtorho : nnsclo_now=1, note that nnsclo,dbl_nnsclo,istep=0 0 4
 
 *********** RHOIJ (atom   1) **********
   1.72532  -2.93624   0.51446   0.00000   0.00000   0.00000   0.00000   0.00000   0.00000
  -2.93624   4.99704  -0.87554   0.00000   0.00000   0.00000   0.00000   0.00000   0.00000
   0.51446  -0.87554   0.15341   0.00000   0.00000   0.00000   0.00000   0.00000   0.00000
   0.00000   0.00000   0.00000 *********   0.00000   0.00000 *********   0.00000   0.00000
   0.00000   0.00000   0.00000   0.00000 *********   0.00000   0.00000 *********   0.00000
   0.00000   0.00000   0.00000   0.00000   0.00000 *********   0.00000   0.00000 *********
   0.00000   0.00000   0.00000 *********   0.00000   0.00000 184.17132   0.00000   0.00000
   0.00000   0.00000   0.00000   0.00000 *********   0.00000   0.00000 184.17132   0.00000
   0.00000   0.00000   0.00000   0.00000   0.00000 *********   0.00000   0.00000 184.17132
 pawio_print_ij: WARNING -
  The matrix seems to have high value(s) !
  ( 12 components have a value greater than   10.0).
  It can cause instabilities during SCF convergence.
  Action: you should check your atomic dataset (psp file)
          and look for "high" projector functions...
 
 Total charge density [el/Bohr^3]
      Maximum=    1.6621E+00  at reduced coord.    0.0000    0.0000    0.0000
      Minimum=    6.5831E-03  at reduced coord.    0.5185    0.4815    0.0000
   Integrated=    3.0000E+00
 ETOT  4  -6.1395716442845     2.714E-06 5.934E-09 1.053E-04
 scprqt: <Vxc>= -4.8856684E-01 hartree
 
 Pulay update with  3 previous iterations:
 mixing of old trial potential : alpha(m:m-4)=   1.08     -0.887E-01  0.997E-02 -0.601E-02
 scfcv: previous iteration took 00 [s]
 average electrostatic smooth potential [Ha] , [eV]      0.000000        0.000000
 
 ****** Psp strength Dij in Ha (atom      1) *****
  -1.75330   0.14282   0.21232   0.00000  -0.00000  -0.00000   0.00000  -0.00000  -0.00000
   0.14282   0.00096   0.05177  -0.00000   0.00000   0.00000  -0.00000   0.00000   0.00000
   0.21232   0.05177   0.34657  -0.00000   0.00000   0.00000  -0.00000   0.00000   0.00000
   0.00000  -0.00000  -0.00000  -0.00616   0.00000   0.00000  -0.02376   0.00000   0.00000
  -0.00000   0.00000   0.00000   0.00000  -0.00616   0.00000   0.00000  -0.02376   0.00000
  -0.00000   0.00000   0.00000   0.00000   0.00000  -0.00616   0.00000   0.00000  -0.02376
   0.00000  -0.00000  -0.00000  -0.02376   0.00000   0.00000  -0.09160   0.00000   0.00000
  -0.00000   0.00000   0.00000   0.00000  -0.02376   0.00000   0.00000  -0.09160   0.00000
  -0.00000   0.00000   0.00000   0.00000   0.00000  -0.02376   0.00000   0.00000  -0.09160
 
 
 ITER STEP NUMBER     5
 vtorho : nnsclo_now=1, note that nnsclo,dbl_nnsclo,istep=0 0 5
 
 *********** RHOIJ (atom   1) **********
   1.72527  -2.93686   0.51463   0.00000   0.00000   0.00000   0.00000   0.00000   0.00000
  -2.93686   4.99930  -0.87603   0.00000   0.00000   0.00000   0.00000   0.00000   0.00000
   0.51463  -0.87603   0.15351   0.00000   0.00000   0.00000   0.00000   0.00000   0.00000
   0.00000   0.00000   0.00000 *********   0.00000   0.00000 *********   0.00000   0.00000
   0.00000   0.00000   0.00000   0.00000 *********   0.00000   0.00000 *********   0.00000
   0.00000   0.00000   0.00000   0.00000   0.00000 *********   0.00000   0.00000 *********
   0.00000   0.00000   0.00000 *********   0.00000   0.00000 184.14795   0.00000   0.00000
   0.00000   0.00000   0.00000   0.00000 *********   0.00000   0.00000 184.14795   0.00000
   0.00000   0.00000   0.00000   0.00000   0.00000 *********   0.00000   0.00000 184.14795
 pawio_print_ij: WARNING -
  The matrix seems to have high value(s) !
  ( 12 components have a value greater than   10.0).
  It can cause instabilities during SCF convergence.
  Action: you should check your atomic dataset (psp file)
          and look for "high" projector functions...
 
 Total charge density [el/Bohr^3]
      Maximum=    1.6621E+00  at reduced coord.    0.0000    0.0000    0.0000
      Minimum=    6.5827E-03  at reduced coord.    0.5185    0.4815    0.0000
   Integrated=    3.0000E+00
 ETOT  5  -6.1395717097929    -6.551E-08 3.327E-11 7.770E-07
 scprqt: <Vxc>= -4.8849369E-01 hartree
 
 At SCF step    5, etot is converged : 
  for the second time, diff in etot=  6.551E-08 < toldfe=  1.000E-05
 
 Cartesian components of stress tensor (hartree/bohr^3)
  sigma(1 1)= -6.89860273E-02  sigma(3 2)=  0.00000000E+00
  sigma(2 2)= -6.89860273E-02  sigma(3 1)=  0.00000000E+00
  sigma(3 3)= -6.89860273E-02  sigma(2 1)=  0.00000000E+00
 
fftdatar_write: about to write data to: abnto_DEN with iomode IO_MODE_FORTRAN
 IO operation completed. cpu_time:       0.0 [s], walltime:       0.0 [s]
 
 PAW TEST:
 ==== Compensation charge inside spheres ============
 The following values must be close to each other ...
 Compensation charge over spherical meshes =      1.177423017549237
 Compensation charge over fine fft grid    =      1.177390880592294
 
 ==== Results concerning PAW augmentation regions ====
 
 Total pseudopotential strength Dij (hartree):
  -1.75330   0.14282   0.21232   0.00000   0.00000   0.00000   0.00000   0.00000   0.00000
   0.14282   0.00096   0.05177   0.00000   0.00000   0.00000   0.00000   0.00000   0.00000
   0.21232   0.05177   0.34657   0.00000   0.00000   0.00000   0.00000   0.00000   0.00000
   0.00000   0.00000   0.00000  -0.00616   0.00000   0.00000  -0.02376   0.00000   0.00000
   0.00000   0.00000   0.00000   0.00000  -0.00616   0.00000   0.00000  -0.02376   0.00000
   0.00000   0.00000   0.00000   0.00000   0.00000  -0.00616   0.00000   0.00000  -0.02376
   0.00000   0.00000   0.00000  -0.02376   0.00000   0.00000  -0.09160   0.00000   0.00000
   0.00000   0.00000   0.00000   0.00000  -0.02376   0.00000   0.00000  -0.09160   0.00000
   0.00000   0.00000   0.00000   0.00000   0.00000  -0.02376   0.00000   0.00000  -0.09160
 
 
 Augmentation waves occupancies Rhoij:
   1.72527  -2.93686   0.51463   0.00000   0.00000   0.00000   0.00000   0.00000   0.00000
  -2.93686   4.99930  -0.87603   0.00000   0.00000   0.00000   0.00000   0.00000   0.00000
   0.51463  -0.87603   0.15351   0.00000   0.00000   0.00000   0.00000   0.00000   0.00000
   0.00000   0.00000   0.00000 *********   0.00000   0.00000 *********   0.00000   0.00000
   0.00000   0.00000   0.00000   0.00000 *********   0.00000   0.00000 *********   0.00000
   0.00000   0.00000   0.00000   0.00000   0.00000 *********   0.00000   0.00000 *********
   0.00000   0.00000   0.00000 *********   0.00000   0.00000 184.14795   0.00000   0.00000
   0.00000   0.00000   0.00000   0.00000 *********   0.00000   0.00000 184.14795   0.00000
   0.00000   0.00000   0.00000   0.00000   0.00000 *********   0.00000   0.00000 184.14795
 
 
================================================================================
 
 ----iterations are completed or convergence reached----
 
 
 === Gap info ===
Not enough states to calculate the band gap.
 Mean square residual over all n,k,spin=   1.5893E-11; max=  3.3269E-11
   0.5000  0.5000  0.5000    1  3.32693E-11 kpt; spin; max resid(k); each band:
  6.92E-12 3.33E-11 7.49E-12
 
 outwf: write wavefunction to file abnto_WFK, with iomode -1
 outwf with iomode: -1, cpu_time:     0.00[s], walltime:     0.00 [s]
 prteigrs : about to open file abnto_EIG
 Fermi (or HOMO) energy (hartree) =   1.05846   Average Vxc (hartree)=  -0.48849
 Eigenvalues (hartree) for nkpt=   1  k points:
 kpt#   1, nband=  3, wtk=  1.00000, kpt=  0.5000  0.5000  0.5000 (reduced coord)
  -1.17457    1.05846    1.05846
 Total charge density [el/Bohr^3]
      Maximum=    1.6621E+00  at reduced coord.    0.0000    0.0000    0.0000
 Next maximum=    1.6219E+00  at reduced coord.    0.9630    0.9630    0.9630
      Minimum=    6.5827E-03  at reduced coord.    0.5185    0.4815    0.0000
 Next minimum=    6.5827E-03  at reduced coord.    0.4815    0.5185    0.0000
   Integrated=    3.0000E+00
 
 Cartesian components of stress tensor (hartree/bohr^3)
  sigma(1 1)= -6.89860273E-02  sigma(3 2)=  0.00000000E+00
  sigma(2 2)= -6.89860273E-02  sigma(3 1)=  0.00000000E+00
  sigma(3 3)= -6.89860273E-02  sigma(2 1)=  0.00000000E+00
 
-Cartesian components of stress tensor (GPa)         [Pressure=  2.0296E+03 GPa]
- sigma(1 1)= -2.02963865E+03  sigma(3 2)=  0.00000000E+00
- sigma(2 2)= -2.02963865E+03  sigma(3 1)=  0.00000000E+00
- sigma(3 3)= -2.02963865E+03  sigma(2 1)=  0.00000000E+00
 
== END DATASET(S) ==============================================================
================================================================================
  
 -outvars: echo values of variables after computation  --------
            acell      3.3000000000E+00  3.3000000000E+00  3.3000000000E+00 Bohr
              amu      6.94100000E+00
             ecut      2.93994603E+01 Hartree
           etotal     -6.1395717098E+00
            fcart      0.0000000000E+00  0.0000000000E+00  0.0000000000E+00
-          fftalg         512
           istwfk        9
              ixc       -1012
              kpt      5.00000000E-01  5.00000000E-01  5.00000000E-01
         kptrlatt        1    0    0      0    1    0      0    0    1
          kptrlen      2.85788383E+00
P           mkmem           1
            natom           1
            nband           3
            ngfft          15      15      15
          ngfftdg          27      27      27
             nkpt           1
            nstep         100
             nsym          48
           ntypat           1
              occ      2.000000  1.000000  0.000000
        pawecutdg      8.81983810E+01 Hartree
            rprim      5.0000000000E-01  5.0000000000E-01 -5.0000000000E-01
                      -5.0000000000E-01  5.0000000000E-01  5.0000000000E-01
                       5.0000000000E-01 -5.0000000000E-01  5.0000000000E-01
           shiftk      5.00000000E-01  5.00000000E-01  5.00000000E-01
          spgroup         229
           strten     -6.8986027292E-02 -6.8986027292E-02 -6.8986027292E-02
                       0.0000000000E+00  0.0000000000E+00  0.0000000000E+00
           symrel      1  0  0   0  1  0   0  0  1      -1  0  0   0 -1  0   0  0 -1
                      -1 -1 -1   0  0  1   0  1  0       1  1  1   0  0 -1   0 -1  0
                       0  1  0   1  0  0  -1 -1 -1       0 -1  0  -1  0  0   1  1  1
                       0  0  1  -1 -1 -1   1  0  0       0  0 -1   1  1  1  -1  0  0
                       0  1  0   1  0  0   0  0  1       0 -1  0  -1  0  0   0  0 -1
                      -1 -1 -1   0  0  1   1  0  0       1  1  1   0  0 -1  -1  0  0
                       1  0  0   0  1  0  -1 -1 -1      -1  0  0   0 -1  0   1  1  1
                       0  0  1  -1 -1 -1   0  1  0       0  0 -1   1  1  1   0 -1  0
                      -1 -1 -1   1  0  0   0  0  1       1  1  1  -1  0  0   0  0 -1
                       0  1  0   0  0  1   1  0  0       0 -1  0   0  0 -1  -1  0  0
                       1  0  0  -1 -1 -1   0  1  0      -1  0  0   1  1  1   0 -1  0
                       0  0  1   0  1  0  -1 -1 -1       0  0 -1   0 -1  0   1  1  1
                       1  0  0  -1 -1 -1   0  0  1      -1  0  0   1  1  1   0  0 -1
                       0  1  0   0  0  1  -1 -1 -1       0 -1  0   0  0 -1   1  1  1
                      -1 -1 -1   1  0  0   0  1  0       1  1  1  -1  0  0   0 -1  0
                       0  0  1   0  1  0   1  0  0       0  0 -1   0 -1  0  -1  0  0
                       0  1  0  -1 -1 -1   0  0  1       0 -1  0   1  1  1   0  0 -1
                       1  0  0   0  0  1  -1 -1 -1      -1  0  0   0  0 -1   1  1  1
                      -1 -1 -1   0  1  0   1  0  0       1  1  1   0 -1  0  -1  0  0
                       0  0  1   1  0  0   0  1  0       0  0 -1  -1  0  0   0 -1  0
                      -1 -1 -1   0  1  0   0  0  1       1  1  1   0 -1  0   0  0 -1
                       1  0  0   0  0  1   0  1  0      -1  0  0   0  0 -1   0 -1  0
                       0  1  0  -1 -1 -1   1  0  0       0 -1  0   1  1  1  -1  0  0
                       0  0  1   1  0  0  -1 -1 -1       0  0 -1  -1  0  0   1  1  1
           toldfe      1.00000000E-05 Hartree
            typat      1
           useylm           1
            znucl        3.00000
 
================================================================================
  

================================================================================

 Suggested references for the acknowledgment of ABINIT usage.

 The users of ABINIT have little formal obligations with respect to the ABINIT group
 (those specified in the GNU General Public License, http://www.gnu.org/copyleft/gpl.txt).
 However, it is common practice in the scientific literature,
 to acknowledge the efforts of people that have made the research possible.
 In this spirit, please find below suggested citations of work written by ABINIT developers,
 corresponding to implementations inside of ABINIT that you have used in the present run.
 Note also that it will be of great value to readers of publications presenting these results,
 to read papers enabling them to understand the theoretical formalism and details
 of the ABINIT implementation.
 For information on why they are suggested, see also http://www.abinit.org/about/?text=acknowledgments.
-
- [1] Implementation of the Projector Augmented-Wave Method in the ABINIT code.
- M. Torrent, F. Jollet, F. Bottin, G. Zerah, and X. Gonze Comput. Mat. Science 42, 337, (2008).
- Comment : PAW calculations. Strong suggestion to cite this paper.
-
- [2] Libxc: A library of exchange and correlation functionals for density functional theory.
- M.A.L. Marques, M.J.T. Oliveira, T. Burnus, Computer Physics Communications 183, 2227 (2012).
- Comment : to be cited when LibXC is used (negative value of ixc)
- Strong suggestion to cite this paper.
-
- [3] Recent developments in the ABINIT software package.
- Computer Phys. Comm. 205, 106 (2016).
- X.Gonze, F.Jollet, F.Abreu Araujo, D.Adams, B.Amadon, T.Applencourt,
- C.Audouze, J.-M.Beuken, J.Bieder, A.Bokhanchuk, E.Bousquet, F.Bruneval
- D.Caliste, M.Cote, F.Dahm, F.Da Pieve, M.Delaveau, M.Di Gennaro,
- B.Dorado, C.Espejo, G.Geneste, L.Genovese, A.Gerossier, M.Giantomassi,
- Y.Gillet, D.R.Hamann, L.He, G.Jomard, J.Laflamme Janssen, S.Le Roux,
- A.Levitt, A.Lherbier, F.Liu, I.Lukacevic, A.Martin, C.Martins,
- M.J.T.Oliveira, S.Ponce, Y.Pouillon, T.Rangel, G.-M.Rignanese,
- A.H.Romero, B.Rousseau, O.Rubel, A.A.Shukri, M.Stankovski, M.Torrent,
- M.J.Van Setten, B.Van Troeye, M.J.Verstraete, D.Waroquier, J.Wiktor,
- B.Xue, A.Zhou, J.W.Zwanziger.
- Comment : the fourth generic paper describing the ABINIT project.
- Note that a version of this paper, that is not formatted for Computer Phys. Comm. 
- is available at http://www.abinit.org/about/ABINIT16.pdf .
- The licence allows the authors to put it on the Web.
-
- [4] ABINIT : First-principles approach of materials and nanosystem properties.
- Computer Phys. Comm. 180, 2582-2615 (2009).
- X. Gonze, B. Amadon, P.-M. Anglade, J.-M. Beuken, F. Bottin, P. Boulanger, F. Bruneval,
- D. Caliste, R. Caracas, M. Cote, T. Deutsch, L. Genovese, Ph. Ghosez, M. Giantomassi
- S. Goedecker, D.R. Hamann, P. Hermet, F. Jollet, G. Jomard, S. Leroux, M. Mancini, S. Mazevet,
- M.J.T. Oliveira, G. Onida, Y. Pouillon, T. Rangel, G.-M. Rignanese, D. Sangalli, R. Shaltaf,
- M. Torrent, M.J. Verstraete, G. Zerah, J.W. Zwanziger
- Comment : the third generic paper describing the ABINIT project.
- Note that a version of this paper, that is not formatted for Computer Phys. Comm. 
- is available at http://www.abinit.org/about/ABINIT_CPC_v10.pdf .
- The licence allows the authors to put it on the Web.
-
- [5] A brief introduction to the ABINIT software package.
- Z. Kristallogr. 220, 558-562 (2005).
- X. Gonze, G.-M. Rignanese, M. Verstraete, J.-M. Beuken, Y. Pouillon, R. Caracas, F. Jollet,
- M. Torrent, G. Zerah, M. Mikami, Ph. Ghosez, M. Veithen, J.-Y. Raty, V. Olevano, F. Bruneval,
- L. Reining, R. Godby, G. Onida, D.R. Hamann, and D.C. Allan.
- Comment : the second generic paper describing the ABINIT project. Note that this paper
- should be cited especially if you are using the GW part of ABINIT, as several authors
- of this part are not in the list of authors of the first or third paper.
- The .pdf of the latter paper is available at http://www.abinit.org/about/zfk_0505-06_558-562.pdf.
- Note that it should not redistributed (Copyright by Oldenburg Wissenshaftverlag,
- the licence allows the authors to put it on the Web).
 Proc.   0 individual time (sec): cpu=          1.6  wall=          1.6
 
 Calculation completed.
.Delivered   6 WARNINGs and   1 COMMENTs to log file.

--- !FinalSummary
program: abinit
version: 8.0.8
start_datetime: Tue Nov 14 18:35:18 2017
end_datetime: Tue Nov 14 18:35:20 2017
overall_cpu_time:           1.6
overall_wall_time:           1.6
exit_requested_by_user: no 
timelimit: 0
pseudos: 
    Li  : 7fc6473512a6a2d2db1bb65323c34d8d
usepaw: 1
mpi_procs: 1
omp_threads: 1
num_warnings: 6
num_comments: 1
...
