  ABINIT 8.0.8
  
  Give name for formatted input file: 
Li.in
  Give name for formatted output file:
abnt.out
  Give root name for generic input files:
abnti
  Give root name for generic output files:
abnto
  Give root name for generic temporary files:
abnt
 
--- !COMMENT
src_file: isfile.F90
src_line: 107
message: |
    Output file abnt.out
     already exists.
...
 
 
--- !COMMENT
src_file: isfile.F90
src_line: 131
message: |
    Renaming old abnt.out to abnt.out0003
...
 

.Version 8.0.8 of ABINIT 
.(MPI version, prepared for a x86_64_linux_intel14.0 computer) 

.Copyright (C) 1998-2016 ABINIT group . 
 ABINIT comes with ABSOLUTELY NO WARRANTY.
 It is free software, and you are welcome to redistribute it
 under certain conditions (GNU General Public License,
 see ~abinit/COPYING or http://www.gnu.org/copyleft/gpl.txt).

 ABINIT is a project of the Universite Catholique de Louvain,
 Corning Inc. and other collaborators, see ~abinit/doc/developers/contributors.txt .
 Please read ~abinit/doc/users/acknowledgments.html for suggested
 acknowledgments of the ABINIT effort.
 For more information, see http://www.abinit.org .

.Starting date : Mon 21 Nov 2016.
- ( at 21h24 )
  
 
 ++++++++++++++++++++++++++++++++++++++++++++++++++++++++++++++++++++++++++++++
 
 === Build Information === 
  Version       : 8.0.8
  Build target  : x86_64_linux_intel14.0
  Build date    : 20160908
 
 === Compiler Suite === 
  C compiler       : intel14.0
  C++ compiler     : gnu14.0
  Fortran compiler : intel14.0
  CFLAGS           :   -O2 -vec-report0  -fp-model precise -fp-model source
  CXXFLAGS         :   -O2 -mtune=native -march=native
  FCFLAGS          :   -extend-source -vec-report0 -noaltparam -nofpscomp  -fp-model precise -fp-model source
  FC_LDFLAGS       :    -static-intel -static-libgcc
 
 === Optimizations === 
  Debug level        : no
  Optimization level : standard
  Architecture       : intel_xeon
 
 === Multicore === 
  Parallel build : yes
  Parallel I/O   : yes
  openMP support : no
  GPU support    : no
 
 === Connectors / Fallbacks === 
  Connectors on : yes
  Fallbacks on  : yes
  DFT flavor    : libxc+wannier90-fallback
  FFT flavor    : dfti
  LINALG flavor : mkl
  MATH flavor   : none
  TIMER flavor  : abinit
  TRIO flavor   : none
 
 === Experimental features === 
  Bindings            : @enable_bindings@
  Exports             : no
  GW double-precision : no
 
 ++++++++++++++++++++++++++++++++++++++++++++++++++++++++++++++++++++++++++++++
 

 ++++++++++++++++++++++++++++++++++++++++++++++++++++++++++++++++++++++++++++++
 Default optimizations:
   -O2 -xHost


 Optimizations for 20_datashare:
   -O0


 ++++++++++++++++++++++++++++++++++++++++++++++++++++++++++++++++++++++++++++++


 ++++++++++++++++++++++++++++++++++++++++++++++++++++++++++++++++++++++++++++++
 CPP options activated during the build:

                  CC_INTEL                   CXX_GNU                  FC_INTEL
 
            HAVE_DFT_LIBXC        HAVE_DFT_WANNIER90 HAVE_FC_ALLOCATABLE_DT...
 
             HAVE_FC_ASYNC  HAVE_FC_COMMAND_ARGUMENT        HAVE_FC_CONTIGUOUS
 
           HAVE_FC_CPUTIME              HAVE_FC_EXIT             HAVE_FC_FLUSH
 
             HAVE_FC_GAMMA   HAVE_FC_IEEE_EXCEPTIONS             HAVE_FC_IOMSG
 
     HAVE_FC_ISO_C_BINDING  HAVE_FC_ISO_FORTRAN_2008        HAVE_FC_LONG_LINES
 
        HAVE_FC_MOVE_ALLOC           HAVE_FC_PRIVATE         HAVE_FC_PROTECTED
 
         HAVE_FC_STREAM_IO                  HAVE_FFT             HAVE_FFT_DFTI
 
              HAVE_FFT_MPI           HAVE_FFT_SERIAL        HAVE_LIBPAW_ABINIT
 
      HAVE_LIBTETRA_ABINIT               HAVE_LINALG        HAVE_LINALG_SERIAL
 
                  HAVE_MPI                 HAVE_MPI2        HAVE_MPI_INTEGER16
 
               HAVE_MPI_IO HAVE_MPI_TYPE_CREATE_S...                HAVE_NUMPY
 
             HAVE_OS_LINUX                HAVE_TIMER         HAVE_TIMER_ABINIT
 
            HAVE_TIMER_MPI         HAVE_TIMER_SERIAL              USE_MACROAVE
 
 ++++++++++++++++++++++++++++++++++++++++++++++++++++++++++++++++++++++++++++++

- input  file    -> Li.in
- output file    -> abnt.out
- root for input  files -> abnti
- root for output files -> abnto
 
-instrng: 38 lines of input have been read from file Li.in
 
  status : statnu, output_rate, shift_rate=           1           0           1
 level,routine=           3 init istatr   
 active(level)=           1
 counter,actual_counter(level,1:2)=           0           0           0
 List of active levels :
  Active level number=           3

 Please give name of formatted atomic psp file
 iofn2 : for atom type 1, psp file is /home/brockc/local/abinit/pseudopotentials/JTH-LDA-atomicdata-1.0/Li.LDA_PW-JTH.xml
- inpspheads : Reading pseudopotential header in XML form from /home/brockc/local/abinit/pseudopotentials/JTH-LDA-atomicdata-1.0/Li.LDA_PW-JTH.xml
 
 inpspheads: deduce mpsang = 2, n1xccc = 1.
 
 invars1m : enter jdtset= 0
 invars1 : treat image number: 1
 
 symlatt : the Bravais lattice is cI (body-centered cubic)
  xred   is defined in input file
 ingeo : takes atomic coordinates from input array xred
 
 symlatt : the Bravais lattice is cI (body-centered cubic)
 
 symlatt : the Bravais lattice is cI (body-centered cubic)
 symspgr : spgroup= 229  Im -3 m   (=Oh^9)
 ingeo : angdeg(1:3)=  109.47122063  109.47122063  109.47122063
       Simple Lattice Grid
 invars2: take the default value of fband=  1.25000000E-01
       Simple Lattice Grid
 
 invars2 : Printing the k point grid (values of kptns - max 100 of them)
 nkpt=      44
     ikpt istwfk    wtk       --------- reduced coordinates ---------  --------- cartesian coordinates ---------
       1     1  8.000000E-03  5.000000E-02  5.000000E-02  5.000000E-02  1.516070E-02  1.516070E-02  1.516070E-02
       2     1  2.400000E-02  1.500000E-01  5.000000E-02  5.000000E-02  3.032141E-02  3.032141E-02  1.516070E-02
       3     1  2.400000E-02  2.500000E-01  5.000000E-02  5.000000E-02  4.548211E-02  4.548211E-02  1.516070E-02
       4     1  2.400000E-02  3.500000E-01  5.000000E-02  5.000000E-02  6.064281E-02  6.064281E-02  1.516070E-02
       5     1  1.200000E-02  4.500000E-01  5.000000E-02  5.000000E-02  7.580352E-02  7.580352E-02  1.516070E-02
       6     1  6.000000E-03 -5.000000E-02  5.000000E-02  5.000000E-02  2.324603E-17  2.344340E-17  1.516070E-02
       7     1  2.400000E-02  1.500000E-01  1.500000E-01  5.000000E-02  3.032141E-02  4.548211E-02  3.032141E-02
       8     1  4.800000E-02  2.500000E-01  1.500000E-01  5.000000E-02  4.548211E-02  6.064281E-02  3.032141E-02
       9     1  4.800000E-02  3.500000E-01  1.500000E-01  5.000000E-02  6.064281E-02  7.580352E-02  3.032141E-02
      10     1  2.400000E-02 -1.500000E-01  1.500000E-01  5.000000E-02 -1.516070E-02  8.601360E-18  3.032141E-02
      11     1  2.400000E-02  2.500000E-01  2.500000E-01  5.000000E-02  4.548211E-02  7.580352E-02  4.548211E-02
      12     1  2.400000E-02  3.500000E-01  2.500000E-01  5.000000E-02  6.064281E-02  9.096422E-02  4.548211E-02
      13     1  2.400000E-02 -2.500000E-01  2.500000E-01  5.000000E-02 -3.032141E-02 -1.670477E-17  4.548211E-02
      14     1  2.400000E-02 -1.500000E-01  2.500000E-01  5.000000E-02 -1.516070E-02  1.516070E-02  4.548211E-02
      15     1  2.400000E-02 -3.500000E-01  3.500000E-01  5.000000E-02 -4.548211E-02 -1.351684E-17  6.064281E-02
      16     1  4.800000E-02 -2.500000E-01  3.500000E-01  5.000000E-02 -3.032141E-02  1.516070E-02  6.064281E-02
      17     1  2.400000E-02 -4.500000E-01  4.500000E-01  5.000000E-02 -6.064281E-02 -1.135985E-17  7.580352E-02
      18     1  4.800000E-02 -3.500000E-01  4.500000E-01  5.000000E-02 -4.548211E-02  1.516070E-02  7.580352E-02
      19     1  2.400000E-02 -2.500000E-01  4.500000E-01  5.000000E-02 -3.032141E-02  3.032141E-02  7.580352E-02
      20     1  2.400000E-02 -4.500000E-01 -4.500000E-01  5.000000E-02 -6.064281E-02 -1.364463E-01 -6.064281E-02
      21     1  4.800000E-02 -3.500000E-01 -4.500000E-01  5.000000E-02 -4.548211E-02 -1.212856E-01 -6.064281E-02
      22     1  8.000000E-03 -3.500000E-01 -3.500000E-01  5.000000E-02 -4.548211E-02 -1.061249E-01 -4.548211E-02
      23     1  8.000000E-03  1.500000E-01  1.500000E-01  1.500000E-01  4.548211E-02  4.548211E-02  4.548211E-02
      24     1  2.400000E-02  2.500000E-01  1.500000E-01  1.500000E-01  6.064281E-02  6.064281E-02  4.548211E-02
      25     1  1.200000E-02  3.500000E-01  1.500000E-01  1.500000E-01  7.580352E-02  7.580352E-02  4.548211E-02
      26     1  6.000000E-03 -1.500000E-01  1.500000E-01  1.500000E-01  1.034985E-17  8.855337E-18  4.548211E-02
      27     1  2.400000E-02  2.500000E-01  2.500000E-01  1.500000E-01  6.064281E-02  7.580352E-02  6.064281E-02
      28     1  2.400000E-02 -2.500000E-01  2.500000E-01  1.500000E-01 -1.516070E-02 -1.645080E-17  6.064281E-02
      29     1  2.400000E-02 -3.500000E-01  3.500000E-01  1.500000E-01 -3.032141E-02 -1.326286E-17  7.580352E-02
      30     1  2.400000E-02 -2.500000E-01  3.500000E-01  1.500000E-01 -1.516070E-02  1.516070E-02  7.580352E-02
      31     1  2.400000E-02 -4.500000E-01  4.500000E-01  1.500000E-01 -4.548211E-02 -1.110587E-17  9.096422E-02
      32     1  4.800000E-02 -3.500000E-01  4.500000E-01  1.500000E-01 -3.032141E-02  1.516070E-02  9.096422E-02
      33     1  2.400000E-02 -4.500000E-01 -4.500000E-01  1.500000E-01 -4.548211E-02 -1.364463E-01 -4.548211E-02
      34     1  2.400000E-02 -3.500000E-01 -4.500000E-01  1.500000E-01 -3.032141E-02 -1.212856E-01 -4.548211E-02
      35     1  2.000000E-03  2.500000E-01  2.500000E-01  2.500000E-01  7.580352E-02  7.580352E-02  7.580352E-02
      36     1  6.000000E-03 -2.500000E-01  2.500000E-01  2.500000E-01 -1.387779E-17 -1.619682E-17  7.580352E-02
      37     1  2.400000E-02 -3.500000E-01  3.500000E-01  2.500000E-01 -1.516070E-02 -1.300888E-17  9.096422E-02
      38     1  2.400000E-02 -4.500000E-01  4.500000E-01  2.500000E-01 -3.032141E-02 -1.085189E-17  1.061249E-01
      39     1  2.400000E-02 -3.500000E-01  4.500000E-01  2.500000E-01 -1.516070E-02  1.516070E-02  1.061249E-01
      40     1  2.400000E-02 -4.500000E-01 -4.500000E-01  2.500000E-01 -3.032141E-02 -1.364463E-01 -3.032141E-02
      41     1  6.000000E-03 -3.500000E-01  3.500000E-01  3.500000E-01 -1.706572E-17 -1.275491E-17  1.061249E-01
      42     1  2.400000E-02 -4.500000E-01  4.500000E-01  3.500000E-01 -1.516070E-02 -1.059792E-17  1.212856E-01
      43     1  8.000000E-03 -4.500000E-01 -4.500000E-01  3.500000E-01 -1.516070E-02 -1.364463E-01 -1.516070E-02
      44     1  6.000000E-03 -4.500000E-01  4.500000E-01  4.500000E-01 -1.922271E-17 -1.034394E-17  1.364463E-01
 
 invars2 : Printing the k point grid from kptrlatt, shifted with shiftk and qptn, in the full Brillouin zone.
   Maximum 100 of them. No use of symmetries
 nkpt_fullbz=    1000
     ikpt      --------------- reduced coordinates ---------------  --------- cartesian coordinates ---------
       1       5.0000000000E-02  5.0000000000E-02  5.0000000000E-02  1.516070E-02  1.516070E-02  1.516070E-02
       2       1.5000000000E-01  5.0000000000E-02  5.0000000000E-02  3.032141E-02  3.032141E-02  1.516070E-02
       3       2.5000000000E-01  5.0000000000E-02  5.0000000000E-02  4.548211E-02  4.548211E-02  1.516070E-02
       4       3.5000000000E-01  5.0000000000E-02  5.0000000000E-02  6.064281E-02  6.064281E-02  1.516070E-02
       5       4.5000000000E-01  5.0000000000E-02  5.0000000000E-02  7.580352E-02  7.580352E-02  1.516070E-02
       6      -4.5000000000E-01  5.0000000000E-02  5.0000000000E-02 -6.064281E-02 -6.064281E-02  1.516070E-02
       7      -3.5000000000E-01  5.0000000000E-02  5.0000000000E-02 -4.548211E-02 -4.548211E-02  1.516070E-02
       8      -2.5000000000E-01  5.0000000000E-02  5.0000000000E-02 -3.032141E-02 -3.032141E-02  1.516070E-02
       9      -1.5000000000E-01  5.0000000000E-02  5.0000000000E-02 -1.516070E-02 -1.516070E-02  1.516070E-02
      10      -5.0000000000E-02  5.0000000000E-02  5.0000000000E-02  2.324603E-17  2.344340E-17  1.516070E-02
      11       5.0000000000E-02  1.5000000000E-01  5.0000000000E-02  1.516070E-02  3.032141E-02  3.032141E-02
      12       1.5000000000E-01  1.5000000000E-01  5.0000000000E-02  3.032141E-02  4.548211E-02  3.032141E-02
      13       2.5000000000E-01  1.5000000000E-01  5.0000000000E-02  4.548211E-02  6.064281E-02  3.032141E-02
      14       3.5000000000E-01  1.5000000000E-01  5.0000000000E-02  6.064281E-02  7.580352E-02  3.032141E-02
      15       4.5000000000E-01  1.5000000000E-01  5.0000000000E-02  7.580352E-02  9.096422E-02  3.032141E-02
      16      -4.5000000000E-01  1.5000000000E-01  5.0000000000E-02 -6.064281E-02 -4.548211E-02  3.032141E-02
      17      -3.5000000000E-01  1.5000000000E-01  5.0000000000E-02 -4.548211E-02 -3.032141E-02  3.032141E-02
      18      -2.5000000000E-01  1.5000000000E-01  5.0000000000E-02 -3.032141E-02 -1.516070E-02  3.032141E-02
      19      -1.5000000000E-01  1.5000000000E-01  5.0000000000E-02 -1.516070E-02  8.601360E-18  3.032141E-02
      20      -5.0000000000E-02  1.5000000000E-01  5.0000000000E-02  2.324603E-17  1.516070E-02  3.032141E-02
      21       5.0000000000E-02  2.5000000000E-01  5.0000000000E-02  1.516070E-02  4.548211E-02  4.548211E-02
      22       1.5000000000E-01  2.5000000000E-01  5.0000000000E-02  3.032141E-02  6.064281E-02  4.548211E-02
      23       2.5000000000E-01  2.5000000000E-01  5.0000000000E-02  4.548211E-02  7.580352E-02  4.548211E-02
      24       3.5000000000E-01  2.5000000000E-01  5.0000000000E-02  6.064281E-02  9.096422E-02  4.548211E-02
      25       4.5000000000E-01  2.5000000000E-01  5.0000000000E-02  7.580352E-02  1.061249E-01  4.548211E-02
      26      -4.5000000000E-01  2.5000000000E-01  5.0000000000E-02 -6.064281E-02 -3.032141E-02  4.548211E-02
      27      -3.5000000000E-01  2.5000000000E-01  5.0000000000E-02 -4.548211E-02 -1.516070E-02  4.548211E-02
      28      -2.5000000000E-01  2.5000000000E-01  5.0000000000E-02 -3.032141E-02 -1.670477E-17  4.548211E-02
      29      -1.5000000000E-01  2.5000000000E-01  5.0000000000E-02 -1.516070E-02  1.516070E-02  4.548211E-02
      30      -5.0000000000E-02  2.5000000000E-01  5.0000000000E-02  2.411339E-17  3.032141E-02  4.548211E-02
      31       5.0000000000E-02  3.5000000000E-01  5.0000000000E-02  1.516070E-02  6.064281E-02  6.064281E-02
      32       1.5000000000E-01  3.5000000000E-01  5.0000000000E-02  3.032141E-02  7.580352E-02  6.064281E-02
      33       2.5000000000E-01  3.5000000000E-01  5.0000000000E-02  4.548211E-02  9.096422E-02  6.064281E-02
      34       3.5000000000E-01  3.5000000000E-01  5.0000000000E-02  6.064281E-02  1.061249E-01  6.064281E-02
      35       4.5000000000E-01  3.5000000000E-01  5.0000000000E-02  7.580352E-02  1.212856E-01  6.064281E-02
      36      -4.5000000000E-01  3.5000000000E-01  5.0000000000E-02 -6.064281E-02 -1.516070E-02  6.064281E-02
      37      -3.5000000000E-01  3.5000000000E-01  5.0000000000E-02 -4.548211E-02 -1.351684E-17  6.064281E-02
      38      -2.5000000000E-01  3.5000000000E-01  5.0000000000E-02 -3.032141E-02  1.516070E-02  6.064281E-02
      39      -1.5000000000E-01  3.5000000000E-01  5.0000000000E-02 -1.516070E-02  3.032141E-02  6.064281E-02
      40      -5.0000000000E-02  3.5000000000E-01  5.0000000000E-02  2.411339E-17  4.548211E-02  6.064281E-02
      41       5.0000000000E-02  4.5000000000E-01  5.0000000000E-02  1.516070E-02  7.580352E-02  7.580352E-02
      42       1.5000000000E-01  4.5000000000E-01  5.0000000000E-02  3.032141E-02  9.096422E-02  7.580352E-02
      43       2.5000000000E-01  4.5000000000E-01  5.0000000000E-02  4.548211E-02  1.061249E-01  7.580352E-02
      44       3.5000000000E-01  4.5000000000E-01  5.0000000000E-02  6.064281E-02  1.212856E-01  7.580352E-02
      45       4.5000000000E-01  4.5000000000E-01  5.0000000000E-02  7.580352E-02  1.364463E-01  7.580352E-02
      46      -4.5000000000E-01  4.5000000000E-01  5.0000000000E-02 -6.064281E-02 -1.135985E-17  7.580352E-02
      47      -3.5000000000E-01  4.5000000000E-01  5.0000000000E-02 -4.548211E-02  1.516070E-02  7.580352E-02
      48      -2.5000000000E-01  4.5000000000E-01  5.0000000000E-02 -3.032141E-02  3.032141E-02  7.580352E-02
      49      -1.5000000000E-01  4.5000000000E-01  5.0000000000E-02 -1.516070E-02  4.548211E-02  7.580352E-02
      50      -5.0000000000E-02  4.5000000000E-01  5.0000000000E-02  2.411339E-17  6.064281E-02  7.580352E-02
      51       5.0000000000E-02 -4.5000000000E-01  5.0000000000E-02  1.516070E-02 -6.064281E-02 -6.064281E-02
      52       1.5000000000E-01 -4.5000000000E-01  5.0000000000E-02  3.032141E-02 -4.548211E-02 -6.064281E-02
      53       2.5000000000E-01 -4.5000000000E-01  5.0000000000E-02  4.548211E-02 -3.032141E-02 -6.064281E-02
      54       3.5000000000E-01 -4.5000000000E-01  5.0000000000E-02  6.064281E-02 -1.516070E-02 -6.064281E-02
      55       4.5000000000E-01 -4.5000000000E-01  5.0000000000E-02  7.580352E-02 -1.909573E-17 -6.064281E-02
      56      -4.5000000000E-01 -4.5000000000E-01  5.0000000000E-02 -6.064281E-02 -1.364463E-01 -6.064281E-02
      57      -3.5000000000E-01 -4.5000000000E-01  5.0000000000E-02 -4.548211E-02 -1.212856E-01 -6.064281E-02
      58      -2.5000000000E-01 -4.5000000000E-01  5.0000000000E-02 -3.032141E-02 -1.061249E-01 -6.064281E-02
      59      -1.5000000000E-01 -4.5000000000E-01  5.0000000000E-02 -1.516070E-02 -9.096422E-02 -6.064281E-02
      60      -5.0000000000E-02 -4.5000000000E-01  5.0000000000E-02  2.237867E-17 -7.580352E-02 -6.064281E-02
      61       5.0000000000E-02 -3.5000000000E-01  5.0000000000E-02  1.516070E-02 -4.548211E-02 -4.548211E-02
      62       1.5000000000E-01 -3.5000000000E-01  5.0000000000E-02  3.032141E-02 -3.032141E-02 -4.548211E-02
      63       2.5000000000E-01 -3.5000000000E-01  5.0000000000E-02  4.548211E-02 -1.516070E-02 -4.548211E-02
      64       3.5000000000E-01 -3.5000000000E-01  5.0000000000E-02  6.064281E-02 -1.693874E-17 -4.548211E-02
      65       4.5000000000E-01 -3.5000000000E-01  5.0000000000E-02  7.580352E-02  1.516070E-02 -4.548211E-02
      66      -4.5000000000E-01 -3.5000000000E-01  5.0000000000E-02 -6.064281E-02 -1.212856E-01 -4.548211E-02
      67      -3.5000000000E-01 -3.5000000000E-01  5.0000000000E-02 -4.548211E-02 -1.061249E-01 -4.548211E-02
      68      -2.5000000000E-01 -3.5000000000E-01  5.0000000000E-02 -3.032141E-02 -9.096422E-02 -4.548211E-02
      69      -1.5000000000E-01 -3.5000000000E-01  5.0000000000E-02 -1.516070E-02 -7.580352E-02 -4.548211E-02
      70      -5.0000000000E-02 -3.5000000000E-01  5.0000000000E-02  2.237867E-17 -6.064281E-02 -4.548211E-02
      71       5.0000000000E-02 -2.5000000000E-01  5.0000000000E-02  1.516070E-02 -3.032141E-02 -3.032141E-02
      72       1.5000000000E-01 -2.5000000000E-01  5.0000000000E-02  3.032141E-02 -1.516070E-02 -3.032141E-02
      73       2.5000000000E-01 -2.5000000000E-01  5.0000000000E-02  4.548211E-02 -1.375080E-17 -3.032141E-02
      74       3.5000000000E-01 -2.5000000000E-01  5.0000000000E-02  6.064281E-02  1.516070E-02 -3.032141E-02
      75       4.5000000000E-01 -2.5000000000E-01  5.0000000000E-02  7.580352E-02  3.032141E-02 -3.032141E-02
      76      -4.5000000000E-01 -2.5000000000E-01  5.0000000000E-02 -6.064281E-02 -1.061249E-01 -3.032141E-02
      77      -3.5000000000E-01 -2.5000000000E-01  5.0000000000E-02 -4.548211E-02 -9.096422E-02 -3.032141E-02
      78      -2.5000000000E-01 -2.5000000000E-01  5.0000000000E-02 -3.032141E-02 -7.580352E-02 -3.032141E-02
      79      -1.5000000000E-01 -2.5000000000E-01  5.0000000000E-02 -1.516070E-02 -6.064281E-02 -3.032141E-02
      80      -5.0000000000E-02 -2.5000000000E-01  5.0000000000E-02  2.237867E-17 -4.548211E-02 -3.032141E-02
      81       5.0000000000E-02 -1.5000000000E-01  5.0000000000E-02  1.516070E-02 -1.516070E-02 -1.516070E-02
      82       1.5000000000E-01 -1.5000000000E-01  5.0000000000E-02  3.032141E-02  7.007392E-18 -1.516070E-02
      83       2.5000000000E-01 -1.5000000000E-01  5.0000000000E-02  4.548211E-02  1.516070E-02 -1.516070E-02
      84       3.5000000000E-01 -1.5000000000E-01  5.0000000000E-02  6.064281E-02  3.032141E-02 -1.516070E-02
      85       4.5000000000E-01 -1.5000000000E-01  5.0000000000E-02  7.580352E-02  4.548211E-02 -1.516070E-02
      86      -4.5000000000E-01 -1.5000000000E-01  5.0000000000E-02 -6.064281E-02 -9.096422E-02 -1.516070E-02
      87      -3.5000000000E-01 -1.5000000000E-01  5.0000000000E-02 -4.548211E-02 -7.580352E-02 -1.516070E-02
      88      -2.5000000000E-01 -1.5000000000E-01  5.0000000000E-02 -3.032141E-02 -6.064281E-02 -1.516070E-02
      89      -1.5000000000E-01 -1.5000000000E-01  5.0000000000E-02 -1.516070E-02 -4.548211E-02 -1.516070E-02
      90      -5.0000000000E-02 -1.5000000000E-01  5.0000000000E-02  2.237867E-17 -3.032141E-02 -1.516070E-02
      91       5.0000000000E-02 -5.0000000000E-02  5.0000000000E-02  1.516070E-02  2.337302E-17  2.324603E-17
      92       1.5000000000E-01 -5.0000000000E-02  5.0000000000E-02  3.032141E-02  1.516070E-02  2.324603E-17
      93       2.5000000000E-01 -5.0000000000E-02  5.0000000000E-02  4.548211E-02  3.032141E-02  2.411339E-17
      94       3.5000000000E-01 -5.0000000000E-02  5.0000000000E-02  6.064281E-02  4.548211E-02  2.411339E-17
      95       4.5000000000E-01 -5.0000000000E-02  5.0000000000E-02  7.580352E-02  6.064281E-02  2.411339E-17
      96      -4.5000000000E-01 -5.0000000000E-02  5.0000000000E-02 -6.064281E-02 -7.580352E-02  2.237867E-17
      97      -3.5000000000E-01 -5.0000000000E-02  5.0000000000E-02 -4.548211E-02 -6.064281E-02  2.237867E-17
      98      -2.5000000000E-01 -5.0000000000E-02  5.0000000000E-02 -3.032141E-02 -4.548211E-02  2.237867E-17
      99      -1.5000000000E-01 -5.0000000000E-02  5.0000000000E-02 -1.516070E-02 -3.032141E-02  2.324603E-17
     100      -5.0000000000E-02 -5.0000000000E-02  5.0000000000E-02  2.324603E-17 -1.516070E-02  2.324603E-17
 

  chkneu : enter, dtset%nelect=   3.00000000000000     
  occopt,dtset%nsppol,dtset%nspden=           1           1           1
  maxocc,nocc,occlast=   2.00000000000000                2
   1.00000000000000     
 chkneu : initialized the occupation numbers for occopt=    1, spin-unpolarized or antiferromagnetic case :
  2.00  1.00  0.00
mpi_setup: mkmem  undefined in the input file.Use default mkmem  = nkpt
 mpi_setup: With nkpt_me=44 and mkmem  = 44, ground state wf handled in core.
mpi_setup: mkqmem undefined in the input file.Use default mkqmem = nkpt
 mpi_setup: With nkpt_me=44 and mkqmem = 44, ground state wf handled in core.
mpi_setup: mk1mem undefined in the input file.Use default mk1mem = nkpt
 mpi_setup: With nkpt_me=44 and mk1mem = 44, ground state wf handled in core.
getng is called for the coarse grid:
 For input ecut=  4.233522E+01 best grid ngfft=      36      36      36
       max ecut=  4.899956E+01
 
 ==== FFT mesh ====
  FFT mesh divisions ........................    36   36   36
  Augmented FFT divisions ...................    37   37   36
  FFT algorithm .............................   512
  FFT cache size ............................    16
 getmpw: optimal value of mpw= 1920
getng is called for the fine grid:
 Using supplied coarse mesh as initial guess.
 For input ecut=  1.270057E+02 best grid ngfft=      60      60      60
       max ecut=  1.361099E+02
 
 ==== FFT mesh ====
  FFT mesh divisions ........................    60   60   60
  Augmented FFT divisions ...................    61   61   60
  FFT algorithm .............................   512
  FFT cache size ............................    16
 
 Symmetries : space group Im -3 m (#229); Bravais cI (body-center cubic)
 
 getdim_nloc : deduce lmnmax  =   9, lnmax  =   5,
                      lmnmaxso=   9, lnmaxso=   5.
memory : analysis of memory needs
================================================================================
 Values of the parameters that define the memory need of the present run
     intxc =       0    ionmov =       2      iscf =      17    lmnmax =       9
     lnmax =       5     mgfft =      36  mpssoang =       2    mqgrid =    3001
     natom =       1  nloc_mem =       2    nspden =       1   nspinor =       1
    nsppol =       1      nsym =      48    n1xccc =       1    ntypat =       1
    occopt =       1   xclevel =       1
-    mband =           3        mffmem =           1         mkmem =          44
       mpw =        1920          nfft =       46656          nkpt =          44
 PAW method is used; the additional fine FFT grid is defined by:
   mgfftf=        60    nfftf =    216000
================================================================================
P This job should need less than                      43.969 Mbytes of memory.
  Rough estimation (10% accuracy) of disk space for files :
_ WF disk file :      3.869 Mbytes ; DEN or POT disk file :      1.650 Mbytes.
================================================================================
 
 Biggest array : f_fftgr(disk), with      5.6973 MBytes.
 memana : allocated an array of      5.697 Mbytes, for testing purposes.
 memana: allocated      43.969Mbytes, for testing purposes. 
 The job will continue.
--------------------------------------------------------------------------------
------------- Echo of variables that govern the present computation ------------
--------------------------------------------------------------------------------
-
- outvars: echo of selected default values                                      
-   iomode0 =  0 , fftalg0 =512 , wfoptalg0 = 10
-
- outvars: echo of global parameters not present in the input file              
-  max_nthreads =    0
-
 -outvars: echo values of preprocessed input variables --------
            acell      3.2980000000E+00  3.2980000000E+00  3.2980000000E+00 Bohr
              amu      6.94100000E+00
          dilatmx      1.20000000E+00
             ecut      2.93994603E+01 Hartree
           ecutsm      5.00000000E-01 Hartree
-          fftalg         512
           ionmov           2
              ixc       -1012
              kpt      5.00000000E-02  5.00000000E-02  5.00000000E-02
                       1.50000000E-01  5.00000000E-02  5.00000000E-02
                       2.50000000E-01  5.00000000E-02  5.00000000E-02
                       3.50000000E-01  5.00000000E-02  5.00000000E-02
                       4.50000000E-01  5.00000000E-02  5.00000000E-02
                      -5.00000000E-02  5.00000000E-02  5.00000000E-02
                       1.50000000E-01  1.50000000E-01  5.00000000E-02
                       2.50000000E-01  1.50000000E-01  5.00000000E-02
                       3.50000000E-01  1.50000000E-01  5.00000000E-02
                      -1.50000000E-01  1.50000000E-01  5.00000000E-02
                       2.50000000E-01  2.50000000E-01  5.00000000E-02
                       3.50000000E-01  2.50000000E-01  5.00000000E-02
                      -2.50000000E-01  2.50000000E-01  5.00000000E-02
                      -1.50000000E-01  2.50000000E-01  5.00000000E-02
                      -3.50000000E-01  3.50000000E-01  5.00000000E-02
                      -2.50000000E-01  3.50000000E-01  5.00000000E-02
                      -4.50000000E-01  4.50000000E-01  5.00000000E-02
                      -3.50000000E-01  4.50000000E-01  5.00000000E-02
                      -2.50000000E-01  4.50000000E-01  5.00000000E-02
                      -4.50000000E-01 -4.50000000E-01  5.00000000E-02
                      -3.50000000E-01 -4.50000000E-01  5.00000000E-02
                      -3.50000000E-01 -3.50000000E-01  5.00000000E-02
                       1.50000000E-01  1.50000000E-01  1.50000000E-01
                       2.50000000E-01  1.50000000E-01  1.50000000E-01
                       3.50000000E-01  1.50000000E-01  1.50000000E-01
                      -1.50000000E-01  1.50000000E-01  1.50000000E-01
                       2.50000000E-01  2.50000000E-01  1.50000000E-01
                      -2.50000000E-01  2.50000000E-01  1.50000000E-01
                      -3.50000000E-01  3.50000000E-01  1.50000000E-01
                      -2.50000000E-01  3.50000000E-01  1.50000000E-01
                      -4.50000000E-01  4.50000000E-01  1.50000000E-01
                      -3.50000000E-01  4.50000000E-01  1.50000000E-01
                      -4.50000000E-01 -4.50000000E-01  1.50000000E-01
                      -3.50000000E-01 -4.50000000E-01  1.50000000E-01
                       2.50000000E-01  2.50000000E-01  2.50000000E-01
                      -2.50000000E-01  2.50000000E-01  2.50000000E-01
                      -3.50000000E-01  3.50000000E-01  2.50000000E-01
                      -4.50000000E-01  4.50000000E-01  2.50000000E-01
                      -3.50000000E-01  4.50000000E-01  2.50000000E-01
                      -4.50000000E-01 -4.50000000E-01  2.50000000E-01
                      -3.50000000E-01  3.50000000E-01  3.50000000E-01
                      -4.50000000E-01  4.50000000E-01  3.50000000E-01
                      -4.50000000E-01 -4.50000000E-01  3.50000000E-01
                      -4.50000000E-01  4.50000000E-01  4.50000000E-01
         kptrlatt       10    0    0      0   10    0      0    0   10
          kptrlen      5.71230356E+01
P           mkmem          44
            natom           1
            nband           3
            ngfft          36      36      36
          ngfftdg          60      60      60
             nkpt          44
            nstep         100
             nsym          48
            ntime         200
           ntypat           1
              occ      2.000000  1.000000  0.000000
          optcell           1
        pawecutdg      8.81983810E+01 Hartree
            rprim      1.0000000000E+00  1.0000000000E+00 -1.0000000000E+00
                      -1.0000000000E+00  1.0000000000E+00  1.0000000000E+00
                       1.0000000000E+00 -1.0000000000E+00  1.0000000000E+00
           shiftk      5.00000000E-01  5.00000000E-01  5.00000000E-01
          spgroup         229
           symrel      1  0  0   0  1  0   0  0  1      -1  0  0   0 -1  0   0  0 -1
                      -1 -1 -1   0  0  1   0  1  0       1  1  1   0  0 -1   0 -1  0
                       0  1  0   1  0  0  -1 -1 -1       0 -1  0  -1  0  0   1  1  1
                       0  0  1  -1 -1 -1   1  0  0       0  0 -1   1  1  1  -1  0  0
                       0  1  0   1  0  0   0  0  1       0 -1  0  -1  0  0   0  0 -1
                      -1 -1 -1   0  0  1   1  0  0       1  1  1   0  0 -1  -1  0  0
                       1  0  0   0  1  0  -1 -1 -1      -1  0  0   0 -1  0   1  1  1
                       0  0  1  -1 -1 -1   0  1  0       0  0 -1   1  1  1   0 -1  0
                      -1 -1 -1   1  0  0   0  0  1       1  1  1  -1  0  0   0  0 -1
                       0  1  0   0  0  1   1  0  0       0 -1  0   0  0 -1  -1  0  0
                       1  0  0  -1 -1 -1   0  1  0      -1  0  0   1  1  1   0 -1  0
                       0  0  1   0  1  0  -1 -1 -1       0  0 -1   0 -1  0   1  1  1
                       1  0  0  -1 -1 -1   0  0  1      -1  0  0   1  1  1   0  0 -1
                       0  1  0   0  0  1  -1 -1 -1       0 -1  0   0  0 -1   1  1  1
                      -1 -1 -1   1  0  0   0  1  0       1  1  1  -1  0  0   0 -1  0
                       0  0  1   0  1  0   1  0  0       0  0 -1   0 -1  0  -1  0  0
                       0  1  0  -1 -1 -1   0  0  1       0 -1  0   1  1  1   0  0 -1
                       1  0  0   0  0  1  -1 -1 -1      -1  0  0   0  0 -1   1  1  1
                      -1 -1 -1   0  1  0   1  0  0       1  1  1   0 -1  0  -1  0  0
                       0  0  1   1  0  0   0  1  0       0  0 -1  -1  0  0   0 -1  0
                      -1 -1 -1   0  1  0   0  0  1       1  1  1   0 -1  0   0  0 -1
                       1  0  0   0  0  1   0  1  0      -1  0  0   0  0 -1   0 -1  0
                       0  1  0  -1 -1 -1   1  0  0       0 -1  0   1  1  1  -1  0  0
                       0  0  1   1  0  0  -1 -1 -1       0  0 -1  -1  0  0   1  1  1
           toldfe      1.00000000E-10 Hartree
           tsmear      7.34986508E-04 Hartree
            typat      1
           useylm           1
              wtk        0.00800    0.02400    0.02400    0.02400    0.01200    0.00600
                         0.02400    0.04800    0.04800    0.02400    0.02400    0.02400
                         0.02400    0.02400    0.02400    0.04800    0.02400    0.04800
                         0.02400    0.02400    0.04800    0.00800    0.00800    0.02400
                         0.01200    0.00600    0.02400    0.02400    0.02400    0.02400
                         0.02400    0.04800    0.02400    0.02400    0.00200    0.00600
                         0.02400    0.02400    0.02400    0.02400    0.00600    0.02400
                         0.00800    0.00600
            znucl        3.00000
 
================================================================================
 
 chkinp: Checking input parameters for consistency.
 DATA TYPE INFORMATION: 
 REAL:      Data type name: REAL(DP) 
            Kind value:      8
            Precision:      15
            Smallest nonnegligible quantity relative to 1:  0.22204460E-15
            Smallest positive number:                       0.22250739-307
            Largest representable number:                   0.17976931+309
 INTEGER:   Data type name: INTEGER(default) 
            Kind value: 4
            Bit size:   32
            Largest representable number: 2147483647
 LOGICAL:   Data type name: LOGICAL 
            Kind value: 4
 CHARACTER: Data type name: CHARACTER             Kind value: 1

  ==== OpenMP parallelism is OFF ====
 
  ==== Using MPI-2 specifications ==== 
  MPI-IO support is ON
  xmpi_tag_ub ................   2147483647
  xmpi_bsize_ch ..............            1
  xmpi_bsize_int .............            4
  xmpi_bsize_sp ..............            4
  xmpi_bsize_dp ..............            8
  xmpi_bsize_spc .............            8
  xmpi_bsize_dpc .............           16
  xmpio_bsize_frm ............            4
  xmpi_address_kind ..........            8
  xmpi_offset_kind ...........            8
  MPI_WTICK ..................   1.000000000000000E-006
 
================================================================================
== DATASET  1 ==================================================================
-   nproc =    1
 
 
 getdim_nloc : deduce lmnmax  =   9, lnmax  =   5,
                      lmnmaxso=   9, lnmaxso=   5.
Slater exchange
PAM Dirac, Proceedings of the Cambridge Philosophical Society 26, 376 (1930)
F Bloch, Zeitschrift fuer Physik 57, 545 (1929)
Perdew & Wang
JP Perdew and Y Wang, Phys. Rev. B 45, 13244 (1992)
 Unit cell volume ucvol=  1.4348680E+02 bohr^3
 Angles (23,13,12)=  1.09471221E+02  1.09471221E+02  1.09471221E+02 degrees
 
 Coarse grid specifications (used for wave-functions):
 
 getcut: wavevector=  0.0000  0.0000  0.0000  ngfft=  36  36  36
         ecut(hartree)=     42.335   => boxcut(ratio)=   2.15167
 
 Fine grid specifications (used for densities):
 
 getcut: wavevector=  0.0000  0.0000  0.0000  ngfft=  60  60  60
         ecut(hartree)=    127.006   => boxcut(ratio)=   2.07044
- pspini: atom type   1  psp file is /home/brockc/local/abinit/pseudopotentials/JTH-LDA-atomicdata-1.0/Li.LDA_PW-JTH.xml
- pspatm: opening atomic psp file    /home/brockc/local/abinit/pseudopotentials/JTH-LDA-atomicdata-1.0/Li.LDA_PW-JTH.xml
- pspatm : Reading pseudopotential header in XML form from /home/brockc/local/abinit/pseudopotentials/JTH-LDA-atomicdata-1.0/Li.LDA_PW-JTH.xml
 Pseudopotential format is: paw10
 basis_size (lnmax)=  5 (lmn_size=  9), orbitals=   0   0   0   1   1
 Spheres core radius: rc_sph= 1.60264751
 1 radial meshes are used:
  - mesh 1: r(i)=AA*[exp(BB*(i-1))-1], size=2001 , AA= 0.17851E-02 BB= 0.53552E-02
 Shapefunction is BESSEL type: shapef(r,l)=aa(1,l)*jl(q(1,l)*r)+aa(2,l)*jl(q(2,l)*r)
 Radius for shape functions =  1.30023672
 mmax= 2001
 Radial grid used for partial waves is grid 1
 Radial grid used for projectors is grid 1
 Radial grid used for (t)core density is grid 1
 Radial grid used for Vloc is grid 1
 Radial grid used for pseudo valence density is grid 1
 
--- !COMMENT
src_file: m_pawpsp.F90
src_line: 1875
message: |
    
      Mesh size for Vloc has been set to 1742 to avoid numerical noise.
...
 
 Compensation charge density is not taken into account in XC energy/potential
 beta integral value:      -0.603111E+01
 pspatm: atomic psp has been read  and splines computed
 
   1.80933409E+01                                ecore*ucvol(ha*bohr**3)
 ==== Info on pseudopotentials ====
  PAW calculation
  Number of pseudopotentials ..    1
  Number of types of atoms   ..    1
  Scalar calculation (no spin-orbit term)
  Nonlocal part applied using real spherical harmonics
  Highest angular momentum +1 .......   2
  Max number of (l,n)   components ..   5
  Max number of (l,m,n) components ..   9
 
 Pseudo-Core Charge Info: 
   Number of radial points for pseudo-core charge ..    1
   XC core-correction treatment (optnlxccc) ........    1
   Radius for pseudo-core charge for each type ..... 
 
  - Atom type    1 has pseudo-core radius .. 80.0000
 
 Info on the Q-grid used for form factors in spline form: 
   Number of q-points for radial functions ffspl ..   3001
   Number of q-points for vlspl ...................   3001
   vloc is computed in Reciprocal Space
 
  XC functional for type 1 is -1012
 
 wfconv:     3 bands initialized randomly with npw=  1910, for ikpt=     1
 wfconv:     3 bands initialized randomly with npw=  1898, for ikpt=     2
 wfconv:     3 bands initialized randomly with npw=  1893, for ikpt=     3
 wfconv:     3 bands initialized randomly with npw=  1879, for ikpt=     4
 wfconv:     3 bands initialized randomly with npw=  1894, for ikpt=     5
 wfconv:     3 bands initialized randomly with npw=  1889, for ikpt=     6
 wfconv:     3 bands initialized randomly with npw=  1899, for ikpt=     7
 wfconv:     3 bands initialized randomly with npw=  1892, for ikpt=     8
 wfconv:     3 bands initialized randomly with npw=  1886, for ikpt=     9
 wfconv:     3 bands initialized randomly with npw=  1894, for ikpt=    10
 wfconv:     3 bands initialized randomly with npw=  1892, for ikpt=    11
 wfconv:     3 bands initialized randomly with npw=  1883, for ikpt=    12
 wfconv:     3 bands initialized randomly with npw=  1898, for ikpt=    13
 wfconv:     3 bands initialized randomly with npw=  1897, for ikpt=    14
 wfconv:     3 bands initialized randomly with npw=  1888, for ikpt=    15
 wfconv:     3 bands initialized randomly with npw=  1893, for ikpt=    16
 wfconv:     3 bands initialized randomly with npw=  1883, for ikpt=    17
 wfconv:     3 bands initialized randomly with npw=  1893, for ikpt=    18
 wfconv:     3 bands initialized randomly with npw=  1887, for ikpt=    19
 wfconv:     3 bands initialized randomly with npw=  1884, for ikpt=    20
 wfconv:     3 bands initialized randomly with npw=  1892, for ikpt=    21
 wfconv:     3 bands initialized randomly with npw=  1875, for ikpt=    22
 wfconv:     3 bands initialized randomly with npw=  1892, for ikpt=    23
 wfconv:     3 bands initialized randomly with npw=  1884, for ikpt=    24
 wfconv:     3 bands initialized randomly with npw=  1884, for ikpt=    25
 wfconv:     3 bands initialized randomly with npw=  1913, for ikpt=    26
 wfconv:     3 bands initialized randomly with npw=  1891, for ikpt=    27
 wfconv:     3 bands initialized randomly with npw=  1897, for ikpt=    28
 wfconv:     3 bands initialized randomly with npw=  1886, for ikpt=    29
 wfconv:     3 bands initialized randomly with npw=  1882, for ikpt=    30
 wfconv:     3 bands initialized randomly with npw=  1885, for ikpt=    31
 wfconv:     3 bands initialized randomly with npw=  1882, for ikpt=    32
 wfconv:     3 bands initialized randomly with npw=  1882, for ikpt=    33
 wfconv:     3 bands initialized randomly with npw=  1877, for ikpt=    34
 wfconv:     3 bands initialized randomly with npw=  1920, for ikpt=    35
 wfconv:     3 bands initialized randomly with npw=  1902, for ikpt=    36
 wfconv:     3 bands initialized randomly with npw=  1879, for ikpt=    37
 wfconv:     3 bands initialized randomly with npw=  1876, for ikpt=    38
 wfconv:     3 bands initialized randomly with npw=  1879, for ikpt=    39
 wfconv:     3 bands initialized randomly with npw=  1877, for ikpt=    40
 wfconv:     3 bands initialized randomly with npw=  1882, for ikpt=    41
 wfconv:     3 bands initialized randomly with npw=  1895, for ikpt=    42
 wfconv:     3 bands initialized randomly with npw=  1902, for ikpt=    43
 wfconv:     3 bands initialized randomly with npw=  1902, for ikpt=    44
_setup2: Arith. and geom. avg. npw (full set) are    1888.520    1888.505
 initro: for itypat=  1, take pseudo charge density from pp file
 
================================================================================
 
=== [ionmov= 2] Broyden-Fletcher-Goldfard-Shanno method (forces)            
================================================================================
 
--- Iteration: (  1/200) Internal Cycle: (1/1)
--------------------------------------------------------------------------------
 
 Cartesian coordinates (xcart) [bohr]
  0.00000000000000E+00  0.00000000000000E+00  0.00000000000000E+00
 Reduced coordinates (xred)
  0.00000000000000E+00  0.00000000000000E+00  0.00000000000000E+00
 Scale of Primitive Cell (acell) [bohr]
  3.29800000000000E+00  3.29800000000000E+00  3.29800000000000E+00
 Real space primitive translations (rprimd) [bohr]
  3.29800000000000E+00  3.29800000000000E+00 -3.29800000000000E+00
 -3.29800000000000E+00  3.29800000000000E+00  3.29800000000000E+00
  3.29800000000000E+00 -3.29800000000000E+00  3.29800000000000E+00
 Unitary Cell Volume (ucvol) [Bohr^3]=  1.43486798368000E+02
 Angles (23,13,12)= [degrees]
  1.09471220634491E+02  1.09471220634491E+02  1.09471220634491E+02
 Lengths [Bohr]
  5.71230356336216E+00  5.71230356336216E+00  5.71230356336216E+00
 
---SELF-CONSISTENT-FIELD CONVERGENCE--------------------------------------------
 FFT (fine) grid used in SCF cycle:
 
 getcut: wavevector=  0.0000  0.0000  0.0000  ngfft=  60  60  60
         ecut(hartree)=     88.198   => boxcut(ratio)=   2.48453
 
 getcut : COMMENT -
  Note that boxcut > 2.2 ; recall that boxcut=Gcut(box)/Gcut(sphere) = 2
  is sufficient for exact treatment of convolution.
  Such a large boxcut is a waste : you could raise ecut
  e.g. ecut=  136.109896 Hartrees makes boxcut=2
 
 average electrostatic smooth potential [Ha] , [eV]      0.000000        0.000000
 
 ****** Psp strength Dij in Ha (atom      1) *****
  -1.99841   0.18435   0.35850  -0.00000  -0.00000   0.00000  -0.00000  -0.00000   0.00000
   0.18435  -0.00566   0.02945   0.00000   0.00000  -0.00000   0.00000   0.00000  -0.00000
   0.35850   0.02945   0.27397   0.00000   0.00000  -0.00000   0.00000   0.00000  -0.00000
  -0.00000   0.00000   0.00000  -0.00653  -0.00000  -0.00000  -0.02519  -0.00000  -0.00000
  -0.00000   0.00000   0.00000  -0.00000  -0.00653   0.00000  -0.00000  -0.02519   0.00000
   0.00000  -0.00000  -0.00000  -0.00000   0.00000  -0.00653  -0.00000   0.00000  -0.02519
  -0.00000   0.00000   0.00000  -0.02519  -0.00000  -0.00000  -0.09720  -0.00000  -0.00000
  -0.00000   0.00000   0.00000  -0.00000  -0.02519   0.00000  -0.00000  -0.09720   0.00000
   0.00000  -0.00000  -0.00000  -0.00000   0.00000  -0.02519  -0.00000   0.00000  -0.09720
 
 
 ITER STEP NUMBER     1
 vtorho : nnsclo_now=2, note that nnsclo,dbl_nnsclo,istep=0 0 1
 
 *********** RHOIJ (atom   1) **********
   2.11634   1.58388  -0.31968   0.00000   0.00000   0.00000   0.00000   0.00000   0.00000
   1.58388   6.50843  -1.27989   0.00000   0.00000   0.00000   0.00000   0.00000   0.00000
  -0.31968  -1.27989   0.28413   0.00000   0.00000   0.00000   0.00000   0.00000   0.00000
   0.00000   0.00000   0.00000  59.14142   0.00000   0.00000 -15.27957   0.00000   0.00000
   0.00000   0.00000   0.00000   0.00000  59.14142   0.00000   0.00000 -15.27957   0.00000
   0.00000   0.00000   0.00000   0.00000   0.00000  59.14142   0.00000   0.00000 -15.27957
   0.00000   0.00000   0.00000 -15.27957   0.00000   0.00000   3.99154   0.00000   0.00000
   0.00000   0.00000   0.00000   0.00000 -15.27957   0.00000   0.00000   3.99154   0.00000
   0.00000   0.00000   0.00000   0.00000   0.00000 -15.27957   0.00000   0.00000   3.99154
 pawio_print_ij: WARNING -
  The matrix seems to have high value(s) !
  (  9 components have a value greater than   10.0).
  It can cause instabilities during SCF convergence.
  Action: you should check your atomic dataset (psp file)
          and look for "high" projector functions...
 
 Total charge density [el/Bohr^3]
      Maximum=    1.5012E+00  at reduced coord.    0.0000    0.0000    0.0000
      Minimum=    6.9842E-03  at reduced coord.    0.5000    0.5000    0.0000
   Integrated=    3.0000E+00
 ETOT  1  -7.2266471138191    -7.227E+00 1.600E+00 1.041E+00
 scprqt: <Vxc>= -2.5150355E-01 hartree
 
Simple mixing update:
  residual square of the potential :  1.927653613562277E-006
 scfcv: previous iteration took 01 [s]
 average electrostatic smooth potential [Ha] , [eV]      0.000000        0.000000
 
 ****** Psp strength Dij in Ha (atom      1) *****
  -2.01434   0.18700   0.36766  -0.00000   0.00000  -0.00000  -0.00000   0.00000  -0.00000
   0.18700  -0.00609   0.02799   0.00000  -0.00000   0.00000   0.00000  -0.00000   0.00000
   0.36766   0.02799   0.26911   0.00000  -0.00000   0.00000   0.00000  -0.00000   0.00000
  -0.00000   0.00000   0.00000  -0.00656   0.00000   0.00000  -0.02530   0.00000   0.00000
   0.00000  -0.00000  -0.00000   0.00000  -0.00656   0.00000   0.00000  -0.02530   0.00000
  -0.00000   0.00000   0.00000   0.00000   0.00000  -0.00656   0.00000   0.00000  -0.02530
  -0.00000   0.00000   0.00000  -0.02530   0.00000   0.00000  -0.09760   0.00000   0.00000
   0.00000  -0.00000  -0.00000   0.00000  -0.02530   0.00000   0.00000  -0.09760   0.00000
  -0.00000   0.00000   0.00000   0.00000   0.00000  -0.02530   0.00000   0.00000  -0.09760
 
 
 ITER STEP NUMBER     2
 vtorho : nnsclo_now=2, note that nnsclo,dbl_nnsclo,istep=0 0 2
 
 *********** RHOIJ (atom   1) **********
   2.01529   0.17161  -0.03869   0.00000   0.00000   0.00000   0.00000   0.00000   0.00000
   0.17161   0.71267  -0.01595   0.00000   0.00000   0.00000   0.00000   0.00000   0.00000
  -0.03869  -0.01595   0.00106   0.00000   0.00000   0.00000   0.00000   0.00000   0.00000
   0.00000   0.00000   0.00000  10.67700   0.00000   0.00000  -2.14221   0.00000   0.00000
   0.00000   0.00000   0.00000   0.00000  10.67700   0.00000   0.00000  -2.14221   0.00000
   0.00000   0.00000   0.00000   0.00000   0.00000  10.67700   0.00000   0.00000  -2.14221
   0.00000   0.00000   0.00000  -2.14221   0.00000   0.00000   0.43283   0.00000   0.00000
   0.00000   0.00000   0.00000   0.00000  -2.14221   0.00000   0.00000   0.43283   0.00000
   0.00000   0.00000   0.00000   0.00000   0.00000  -2.14221   0.00000   0.00000   0.43283
 pawio_print_ij: WARNING -
  The matrix seems to have high value(s) !
  (  3 components have a value greater than   10.0).
  It can cause instabilities during SCF convergence.
  Action: you should check your atomic dataset (psp file)
          and look for "high" projector functions...
 
 Total charge density [el/Bohr^3]
      Maximum=    1.5177E+00  at reduced coord.    0.0000    0.0000    0.0000
      Minimum=    7.2759E-03  at reduced coord.    0.3833    0.3833    0.0000
   Integrated=    3.0000E+00
 ETOT  2  -7.3641151580463    -1.375E-01 3.652E-02 2.477E-01
 scprqt: <Vxc>= -2.5237121E-01 hartree
 
 Pulay update with  1 previous iterations:
 mixing of old trial potential : alpha(m:m-4)=  0.671      0.329
 scfcv: previous iteration took 01 [s]
 average electrostatic smooth potential [Ha] , [eV]      0.000000        0.000000
 
 ****** Psp strength Dij in Ha (atom      1) *****
  -2.00985   0.18624   0.36503  -0.00000  -0.00000   0.00000  -0.00000  -0.00000   0.00000
   0.18624  -0.00597   0.02843   0.00000   0.00000  -0.00000   0.00000   0.00000  -0.00000
   0.36503   0.02843   0.27058   0.00000   0.00000  -0.00000   0.00000   0.00000  -0.00000
  -0.00000   0.00000   0.00000  -0.00655  -0.00000  -0.00000  -0.02528  -0.00000  -0.00000
  -0.00000   0.00000   0.00000  -0.00000  -0.00655  -0.00000  -0.00000  -0.02528  -0.00000
   0.00000  -0.00000  -0.00000  -0.00000  -0.00000  -0.00655  -0.00000  -0.00000  -0.02528
  -0.00000   0.00000   0.00000  -0.02528  -0.00000  -0.00000  -0.09755  -0.00000  -0.00000
  -0.00000   0.00000   0.00000  -0.00000  -0.02528  -0.00000  -0.00000  -0.09755  -0.00000
   0.00000  -0.00000  -0.00000  -0.00000  -0.00000  -0.02528  -0.00000  -0.00000  -0.09755
 
 
 ITER STEP NUMBER     3
 vtorho : nnsclo_now=1, note that nnsclo,dbl_nnsclo,istep=0 0 3
 
 *********** RHOIJ (atom   1) **********
   2.01206   0.13605  -0.02867   0.00000   0.00000   0.00000   0.00000   0.00000   0.00000
   0.13605   0.72721  -0.01726   0.00000   0.00000   0.00000   0.00000   0.00000   0.00000
  -0.02867  -0.01726   0.00077   0.00000   0.00000   0.00000   0.00000   0.00000   0.00000
   0.00000   0.00000   0.00000  10.95810   0.00000   0.00000  -2.20722   0.00000   0.00000
   0.00000   0.00000   0.00000   0.00000  10.95810   0.00000   0.00000  -2.20722   0.00000
   0.00000   0.00000   0.00000   0.00000   0.00000  10.95810   0.00000   0.00000  -2.20722
   0.00000   0.00000   0.00000  -2.20722   0.00000   0.00000   0.44743   0.00000   0.00000
   0.00000   0.00000   0.00000   0.00000  -2.20722   0.00000   0.00000   0.44743   0.00000
   0.00000   0.00000   0.00000   0.00000   0.00000  -2.20722   0.00000   0.00000   0.44743
 pawio_print_ij: WARNING -
  The matrix seems to have high value(s) !
  (  3 components have a value greater than   10.0).
  It can cause instabilities during SCF convergence.
  Action: you should check your atomic dataset (psp file)
          and look for "high" projector functions...
 
 Total charge density [el/Bohr^3]
      Maximum=    1.5159E+00  at reduced coord.    0.0000    0.0000    0.0000
      Minimum=    7.2835E-03  at reduced coord.    0.3833    0.3667    0.0000
   Integrated=    3.0000E+00
 ETOT  3  -7.3640709180856     4.424E-05 1.375E-03 6.635E-02
 scprqt: <Vxc>= -2.5217921E-01 hartree
 
 Pulay update with  2 previous iterations:
 mixing of old trial potential : alpha(m:m-4)=   1.70     -0.751      0.557E-01
 scfcv: previous iteration took 00 [s]
 average electrostatic smooth potential [Ha] , [eV]      0.000000        0.000000
 
 ****** Psp strength Dij in Ha (atom      1) *****
  -2.00653   0.18568   0.36310  -0.00000   0.00000   0.00000  -0.00000   0.00000   0.00000
   0.18568  -0.00587   0.02874   0.00000  -0.00000  -0.00000   0.00000  -0.00000  -0.00000
   0.36310   0.02874   0.27165   0.00000  -0.00000  -0.00000   0.00000  -0.00000  -0.00000
  -0.00000   0.00000   0.00000  -0.00655  -0.00000  -0.00000  -0.02527  -0.00000  -0.00000
   0.00000  -0.00000  -0.00000  -0.00000  -0.00655  -0.00000  -0.00000  -0.02527  -0.00000
   0.00000  -0.00000  -0.00000  -0.00000  -0.00000  -0.00655  -0.00000  -0.00000  -0.02527
  -0.00000   0.00000   0.00000  -0.02527  -0.00000  -0.00000  -0.09750  -0.00000  -0.00000
   0.00000  -0.00000  -0.00000  -0.00000  -0.02527  -0.00000  -0.00000  -0.09750  -0.00000
   0.00000  -0.00000  -0.00000  -0.00000  -0.00000  -0.02527  -0.00000  -0.00000  -0.09750
 
 
 ITER STEP NUMBER     4
 vtorho : nnsclo_now=1, note that nnsclo,dbl_nnsclo,istep=0 0 4
 
 *********** RHOIJ (atom   1) **********
   2.00999   0.11269  -0.02206   0.00000   0.00000   0.00000   0.00000   0.00000   0.00000
   0.11269   0.71536  -0.01595   0.00000   0.00000   0.00000   0.00000   0.00000   0.00000
  -0.02206  -0.01595   0.00058   0.00000   0.00000   0.00000   0.00000   0.00000   0.00000
   0.00000   0.00000   0.00000  11.16415   0.00000   0.00000  -2.25600   0.00000   0.00000
   0.00000   0.00000   0.00000   0.00000  11.16415   0.00000   0.00000  -2.25600   0.00000
   0.00000   0.00000   0.00000   0.00000   0.00000  11.16415   0.00000   0.00000  -2.25600
   0.00000   0.00000   0.00000  -2.25600   0.00000   0.00000   0.45871   0.00000   0.00000
   0.00000   0.00000   0.00000   0.00000  -2.25600   0.00000   0.00000   0.45871   0.00000
   0.00000   0.00000   0.00000   0.00000   0.00000  -2.25600   0.00000   0.00000   0.45871
 pawio_print_ij: WARNING -
  The matrix seems to have high value(s) !
  (  3 components have a value greater than   10.0).
  It can cause instabilities during SCF convergence.
  Action: you should check your atomic dataset (psp file)
          and look for "high" projector functions...
 
 Total charge density [el/Bohr^3]
      Maximum=    1.5146E+00  at reduced coord.    0.0000    0.0000    0.0000
      Minimum=    7.2894E-03  at reduced coord.    0.3667    0.3667    0.0000
   Integrated=    3.0000E+00
 ETOT  4  -7.3640653939392     5.524E-06 1.621E-04 2.793E-03
 scprqt: <Vxc>= -2.5200342E-01 hartree
 
 Pulay update with  3 previous iterations:
 mixing of old trial potential : alpha(m:m-4)=   1.75      -1.14      0.396     -0.794E-02
 scfcv: previous iteration took 00 [s]
 average electrostatic smooth potential [Ha] , [eV]      0.000000        0.000000
 
 ****** Psp strength Dij in Ha (atom      1) *****
  -2.00592   0.18558   0.36274  -0.00000   0.00000  -0.00000  -0.00000   0.00000  -0.00000
   0.18558  -0.00586   0.02880   0.00000  -0.00000   0.00000   0.00000  -0.00000   0.00000
   0.36274   0.02880   0.27185   0.00000  -0.00000   0.00000   0.00000  -0.00000   0.00000
  -0.00000   0.00000   0.00000  -0.00655  -0.00000  -0.00000  -0.02527  -0.00000  -0.00000
   0.00000  -0.00000  -0.00000  -0.00000  -0.00655  -0.00000  -0.00000  -0.02527  -0.00000
  -0.00000   0.00000   0.00000  -0.00000  -0.00000  -0.00655  -0.00000  -0.00000  -0.02527
  -0.00000   0.00000   0.00000  -0.02527  -0.00000  -0.00000  -0.09749  -0.00000  -0.00000
   0.00000  -0.00000  -0.00000  -0.00000  -0.02527  -0.00000  -0.00000  -0.09749  -0.00000
  -0.00000   0.00000   0.00000  -0.00000  -0.00000  -0.02527  -0.00000  -0.00000  -0.09749
 
 
 ITER STEP NUMBER     5
 vtorho : nnsclo_now=1, note that nnsclo,dbl_nnsclo,istep=0 0 5
 
 *********** RHOIJ (atom   1) **********
   2.00954   0.10756  -0.02065   0.00000   0.00000   0.00000   0.00000   0.00000   0.00000
   0.10756   0.71198  -0.01564   0.00000   0.00000   0.00000   0.00000   0.00000   0.00000
  -0.02065  -0.01564   0.00055   0.00000   0.00000   0.00000   0.00000   0.00000   0.00000
   0.00000   0.00000   0.00000  11.18198   0.00000   0.00000  -2.26011   0.00000   0.00000
   0.00000   0.00000   0.00000   0.00000  11.18198   0.00000   0.00000  -2.26011   0.00000
   0.00000   0.00000   0.00000   0.00000   0.00000  11.18198   0.00000   0.00000  -2.26011
   0.00000   0.00000   0.00000  -2.26011   0.00000   0.00000   0.45961   0.00000   0.00000
   0.00000   0.00000   0.00000   0.00000  -2.26011   0.00000   0.00000   0.45961   0.00000
   0.00000   0.00000   0.00000   0.00000   0.00000  -2.26011   0.00000   0.00000   0.45961
 pawio_print_ij: WARNING -
  The matrix seems to have high value(s) !
  (  3 components have a value greater than   10.0).
  It can cause instabilities during SCF convergence.
  Action: you should check your atomic dataset (psp file)
          and look for "high" projector functions...
 
 Total charge density [el/Bohr^3]
      Maximum=    1.5144E+00  at reduced coord.    0.0000    0.0000    0.0000
      Minimum=    7.2908E-03  at reduced coord.    0.3667    0.3667    0.0000
   Integrated=    3.0000E+00
 ETOT  5  -7.3640664916548    -1.098E-06 2.639E-04 4.510E-05
 scprqt: <Vxc>= -2.5195410E-01 hartree
 
 Pulay update with  4 previous iterations:
 mixing of old trial potential : alpha(m:m-4)=   1.39     -0.697      0.476     -0.165     -0.318E-02
 scfcv: previous iteration took 00 [s]
 average electrostatic smooth potential [Ha] , [eV]      0.000000        0.000000
 
 ****** Psp strength Dij in Ha (atom      1) *****
  -2.00599   0.18559   0.36279  -0.00000   0.00000  -0.00000  -0.00000   0.00000  -0.00000
   0.18559  -0.00586   0.02879   0.00000  -0.00000   0.00000   0.00000  -0.00000   0.00000
   0.36279   0.02879   0.27182   0.00000  -0.00000   0.00000   0.00000  -0.00000   0.00000
  -0.00000   0.00000   0.00000  -0.00655  -0.00000  -0.00000  -0.02527  -0.00000  -0.00000
   0.00000  -0.00000  -0.00000  -0.00000  -0.00655  -0.00000  -0.00000  -0.02527  -0.00000
  -0.00000   0.00000   0.00000  -0.00000  -0.00000  -0.00655  -0.00000  -0.00000  -0.02527
  -0.00000   0.00000   0.00000  -0.02527  -0.00000  -0.00000  -0.09749  -0.00000  -0.00000
   0.00000  -0.00000  -0.00000  -0.00000  -0.02527  -0.00000  -0.00000  -0.09749  -0.00000
  -0.00000   0.00000   0.00000  -0.00000  -0.00000  -0.02527  -0.00000  -0.00000  -0.09749
 
 
 ITER STEP NUMBER     6
 vtorho : nnsclo_now=1, note that nnsclo,dbl_nnsclo,istep=0 0 6
 
 *********** RHOIJ (atom   1) **********
   2.00961   0.10822  -0.02083   0.00000   0.00000   0.00000   0.00000   0.00000   0.00000
   0.10822   0.71091  -0.01552   0.00000   0.00000   0.00000   0.00000   0.00000   0.00000
  -0.02083  -0.01552   0.00054   0.00000   0.00000   0.00000   0.00000   0.00000   0.00000
   0.00000   0.00000   0.00000  11.17139   0.00000   0.00000  -2.25757   0.00000   0.00000
   0.00000   0.00000   0.00000   0.00000  11.17139   0.00000   0.00000  -2.25757   0.00000
   0.00000   0.00000   0.00000   0.00000   0.00000  11.17139   0.00000   0.00000  -2.25757
   0.00000   0.00000   0.00000  -2.25757   0.00000   0.00000   0.45902   0.00000   0.00000
   0.00000   0.00000   0.00000   0.00000  -2.25757   0.00000   0.00000   0.45902   0.00000
   0.00000   0.00000   0.00000   0.00000   0.00000  -2.25757   0.00000   0.00000   0.45902
 pawio_print_ij: WARNING -
  The matrix seems to have high value(s) !
  (  3 components have a value greater than   10.0).
  It can cause instabilities during SCF convergence.
  Action: you should check your atomic dataset (psp file)
          and look for "high" projector functions...
 
 Total charge density [el/Bohr^3]
      Maximum=    1.5144E+00  at reduced coord.    0.0000    0.0000    0.0000
      Minimum=    7.2908E-03  at reduced coord.    0.3667    0.3667    0.0000
   Integrated=    3.0000E+00
 ETOT  6  -7.3640664871352     4.520E-09 1.144E-04 6.426E-06
 scprqt: <Vxc>= -2.5195939E-01 hartree
 
 Pulay update with  5 previous iterations:
 mixing of old trial potential : alpha(m:m-4)=   1.52     -0.607      0.139     -0.781E-01  0.233E-01
 scfcv: previous iteration took 00 [s]
 average electrostatic smooth potential [Ha] , [eV]      0.000000        0.000000
 
 ****** Psp strength Dij in Ha (atom      1) *****
  -2.00602   0.18560   0.36280  -0.00000   0.00000   0.00000  -0.00000   0.00000   0.00000
   0.18560  -0.00586   0.02879   0.00000  -0.00000  -0.00000   0.00000  -0.00000  -0.00000
   0.36280   0.02879   0.27182   0.00000  -0.00000  -0.00000   0.00000  -0.00000  -0.00000
  -0.00000   0.00000   0.00000  -0.00655  -0.00000  -0.00000  -0.02527  -0.00000  -0.00000
   0.00000  -0.00000  -0.00000  -0.00000  -0.00655  -0.00000  -0.00000  -0.02527  -0.00000
   0.00000  -0.00000  -0.00000  -0.00000  -0.00000  -0.00655  -0.00000  -0.00000  -0.02527
  -0.00000   0.00000   0.00000  -0.02527  -0.00000  -0.00000  -0.09749  -0.00000  -0.00000
   0.00000  -0.00000  -0.00000  -0.00000  -0.02527  -0.00000  -0.00000  -0.09749  -0.00000
   0.00000  -0.00000  -0.00000  -0.00000  -0.00000  -0.02527  -0.00000  -0.00000  -0.09749
 
 
 ITER STEP NUMBER     7
 vtorho : nnsclo_now=1, note that nnsclo,dbl_nnsclo,istep=0 0 7
 
 *********** RHOIJ (atom   1) **********
   2.00962   0.10834  -0.02086   0.00000   0.00000   0.00000   0.00000   0.00000   0.00000
   0.10834   0.71111  -0.01554   0.00000   0.00000   0.00000   0.00000   0.00000   0.00000
  -0.02086  -0.01554   0.00055   0.00000   0.00000   0.00000   0.00000   0.00000   0.00000
   0.00000   0.00000   0.00000  11.16858   0.00000   0.00000  -2.25693   0.00000   0.00000
   0.00000   0.00000   0.00000   0.00000  11.16858   0.00000   0.00000  -2.25693   0.00000
   0.00000   0.00000   0.00000   0.00000   0.00000  11.16858   0.00000   0.00000  -2.25693
   0.00000   0.00000   0.00000  -2.25693   0.00000   0.00000   0.45888   0.00000   0.00000
   0.00000   0.00000   0.00000   0.00000  -2.25693   0.00000   0.00000   0.45888   0.00000
   0.00000   0.00000   0.00000   0.00000   0.00000  -2.25693   0.00000   0.00000   0.45888
 pawio_print_ij: WARNING -
  The matrix seems to have high value(s) !
  (  3 components have a value greater than   10.0).
  It can cause instabilities during SCF convergence.
  Action: you should check your atomic dataset (psp file)
          and look for "high" projector functions...
 
 Total charge density [el/Bohr^3]
      Maximum=    1.5144E+00  at reduced coord.    0.0000    0.0000    0.0000
      Minimum=    7.2908E-03  at reduced coord.    0.3667    0.3667    0.0000
   Integrated=    3.0000E+00
 ETOT  7  -7.3640664852431     1.892E-09 1.700E-05 1.230E-06
 scprqt: <Vxc>= -2.5196200E-01 hartree
 
 Pulay update with  6 previous iterations:
 mixing of old trial potential : alpha(m:m-4)=   1.83      -1.20      0.406     -0.542E-01  0.340E-01
 scfcv: previous iteration took 00 [s]
 average electrostatic smooth potential [Ha] , [eV]      0.000000        0.000000
 
 ****** Psp strength Dij in Ha (atom      1) *****
  -2.00604   0.18560   0.36282  -0.00000   0.00000   0.00000  -0.00000   0.00000   0.00000
   0.18560  -0.00586   0.02879   0.00000  -0.00000  -0.00000   0.00000  -0.00000  -0.00000
   0.36282   0.02879   0.27181   0.00000  -0.00000  -0.00000   0.00000  -0.00000  -0.00000
  -0.00000   0.00000   0.00000  -0.00655  -0.00000  -0.00000  -0.02527  -0.00000  -0.00000
   0.00000  -0.00000  -0.00000  -0.00000  -0.00655  -0.00000  -0.00000  -0.02527  -0.00000
   0.00000  -0.00000  -0.00000  -0.00000  -0.00000  -0.00655  -0.00000  -0.00000  -0.02527
  -0.00000   0.00000   0.00000  -0.02527  -0.00000  -0.00000  -0.09749  -0.00000  -0.00000
   0.00000  -0.00000  -0.00000  -0.00000  -0.02527  -0.00000  -0.00000  -0.09749  -0.00000
   0.00000  -0.00000  -0.00000  -0.00000  -0.00000  -0.02527  -0.00000  -0.00000  -0.09749
 
 
 ITER STEP NUMBER     8
 vtorho : nnsclo_now=1, note that nnsclo,dbl_nnsclo,istep=0 0 8
 
 *********** RHOIJ (atom   1) **********
   2.00963   0.10850  -0.02091   0.00000   0.00000   0.00000   0.00000   0.00000   0.00000
   0.10850   0.71108  -0.01553   0.00000   0.00000   0.00000   0.00000   0.00000   0.00000
  -0.02091  -0.01553   0.00055   0.00000   0.00000   0.00000   0.00000   0.00000   0.00000
   0.00000   0.00000   0.00000  11.16758   0.00000   0.00000  -2.25669   0.00000   0.00000
   0.00000   0.00000   0.00000   0.00000  11.16758   0.00000   0.00000  -2.25669   0.00000
   0.00000   0.00000   0.00000   0.00000   0.00000  11.16758   0.00000   0.00000  -2.25669
   0.00000   0.00000   0.00000  -2.25669   0.00000   0.00000   0.45882   0.00000   0.00000
   0.00000   0.00000   0.00000   0.00000  -2.25669   0.00000   0.00000   0.45882   0.00000
   0.00000   0.00000   0.00000   0.00000   0.00000  -2.25669   0.00000   0.00000   0.45882
 pawio_print_ij: WARNING -
  The matrix seems to have high value(s) !
  (  3 components have a value greater than   10.0).
  It can cause instabilities during SCF convergence.
  Action: you should check your atomic dataset (psp file)
          and look for "high" projector functions...
 
 Total charge density [el/Bohr^3]
      Maximum=    1.5144E+00  at reduced coord.    0.0000    0.0000    0.0000
      Minimum=    7.2908E-03  at reduced coord.    0.3667    0.3667    0.0000
   Integrated=    3.0000E+00
 ETOT  8  -7.3640664849725     2.706E-10 6.301E-06 3.567E-08
 scprqt: <Vxc>= -2.5196359E-01 hartree
 
 Pulay update with  7 previous iterations:
 mixing of old trial potential : alpha(m:m-4)=   1.13     -0.221      0.929E-01  0.188E-01 -0.276E-01
 scfcv: previous iteration took 00 [s]
 average electrostatic smooth potential [Ha] , [eV]      0.000000        0.000000
 
 ****** Psp strength Dij in Ha (atom      1) *****
  -2.00604   0.18560   0.36282  -0.00000   0.00000   0.00000  -0.00000   0.00000   0.00000
   0.18560  -0.00586   0.02879   0.00000  -0.00000  -0.00000   0.00000  -0.00000  -0.00000
   0.36282   0.02879   0.27181   0.00000  -0.00000  -0.00000   0.00000  -0.00000  -0.00000
  -0.00000   0.00000   0.00000  -0.00655  -0.00000  -0.00000  -0.02527  -0.00000  -0.00000
   0.00000  -0.00000  -0.00000  -0.00000  -0.00655  -0.00000  -0.00000  -0.02527  -0.00000
   0.00000  -0.00000  -0.00000  -0.00000  -0.00000  -0.00655  -0.00000  -0.00000  -0.02527
  -0.00000   0.00000   0.00000  -0.02527  -0.00000  -0.00000  -0.09749  -0.00000  -0.00000
   0.00000  -0.00000  -0.00000  -0.00000  -0.02527  -0.00000  -0.00000  -0.09749  -0.00000
   0.00000  -0.00000  -0.00000  -0.00000  -0.00000  -0.02527  -0.00000  -0.00000  -0.09749
 
 
 ITER STEP NUMBER     9
 vtorho : nnsclo_now=1, note that nnsclo,dbl_nnsclo,istep=0 0 9
 
 *********** RHOIJ (atom   1) **********
   2.00963   0.10847  -0.02090   0.00000   0.00000   0.00000   0.00000   0.00000   0.00000
   0.10847   0.71114  -0.01554   0.00000   0.00000   0.00000   0.00000   0.00000   0.00000
  -0.02090  -0.01554   0.00055   0.00000   0.00000   0.00000   0.00000   0.00000   0.00000
   0.00000   0.00000   0.00000  11.16776   0.00000   0.00000  -2.25674   0.00000   0.00000
   0.00000   0.00000   0.00000   0.00000  11.16776   0.00000   0.00000  -2.25674   0.00000
   0.00000   0.00000   0.00000   0.00000   0.00000  11.16776   0.00000   0.00000  -2.25674
   0.00000   0.00000   0.00000  -2.25674   0.00000   0.00000   0.45883   0.00000   0.00000
   0.00000   0.00000   0.00000   0.00000  -2.25674   0.00000   0.00000   0.45883   0.00000
   0.00000   0.00000   0.00000   0.00000   0.00000  -2.25674   0.00000   0.00000   0.45883
 pawio_print_ij: WARNING -
  The matrix seems to have high value(s) !
  (  3 components have a value greater than   10.0).
  It can cause instabilities during SCF convergence.
  Action: you should check your atomic dataset (psp file)
          and look for "high" projector functions...
 
 Total charge density [el/Bohr^3]
      Maximum=    1.5144E+00  at reduced coord.    0.0000    0.0000    0.0000
      Minimum=    7.2908E-03  at reduced coord.    0.3667    0.3667    0.0000
   Integrated=    3.0000E+00
 ETOT  9  -7.3640664849725    -5.063E-14 2.541E-06 1.290E-09
 scprqt: <Vxc>= -2.5196338E-01 hartree
 
 Pulay update with  7 previous iterations:
 mixing of old trial potential : alpha(m:m-4)=   1.06     -0.860E-01  0.641E-01 -0.492E-01  0.118E-01
 scfcv: previous iteration took 00 [s]
 average electrostatic smooth potential [Ha] , [eV]      0.000000        0.000000
 
 ****** Psp strength Dij in Ha (atom      1) *****
  -2.00604   0.18560   0.36282  -0.00000  -0.00000  -0.00000  -0.00000  -0.00000  -0.00000
   0.18560  -0.00586   0.02879   0.00000   0.00000   0.00000   0.00000   0.00000   0.00000
   0.36282   0.02879   0.27181   0.00000   0.00000   0.00000   0.00000   0.00000   0.00000
  -0.00000   0.00000   0.00000  -0.00655  -0.00000  -0.00000  -0.02527  -0.00000  -0.00000
  -0.00000   0.00000   0.00000  -0.00000  -0.00655   0.00000  -0.00000  -0.02527   0.00000
  -0.00000   0.00000   0.00000  -0.00000   0.00000  -0.00655  -0.00000   0.00000  -0.02527
  -0.00000   0.00000   0.00000  -0.02527  -0.00000  -0.00000  -0.09749  -0.00000  -0.00000
  -0.00000   0.00000   0.00000  -0.00000  -0.02527   0.00000  -0.00000  -0.09749   0.00000
  -0.00000   0.00000   0.00000  -0.00000   0.00000  -0.02527  -0.00000   0.00000  -0.09749
 
 
 ITER STEP NUMBER    10
 vtorho : nnsclo_now=1, note that nnsclo,dbl_nnsclo,istep=0 0 10
 
 *********** RHOIJ (atom   1) **********
   2.00963   0.10846  -0.02090   0.00000   0.00000   0.00000   0.00000   0.00000   0.00000
   0.10846   0.71113  -0.01554   0.00000   0.00000   0.00000   0.00000   0.00000   0.00000
  -0.02090  -0.01554   0.00055   0.00000   0.00000   0.00000   0.00000   0.00000   0.00000
   0.00000   0.00000   0.00000  11.16777   0.00000   0.00000  -2.25674   0.00000   0.00000
   0.00000   0.00000   0.00000   0.00000  11.16777   0.00000   0.00000  -2.25674   0.00000
   0.00000   0.00000   0.00000   0.00000   0.00000  11.16777   0.00000   0.00000  -2.25674
   0.00000   0.00000   0.00000  -2.25674   0.00000   0.00000   0.45883   0.00000   0.00000
   0.00000   0.00000   0.00000   0.00000  -2.25674   0.00000   0.00000   0.45883   0.00000
   0.00000   0.00000   0.00000   0.00000   0.00000  -2.25674   0.00000   0.00000   0.45883
 pawio_print_ij: WARNING -
  The matrix seems to have high value(s) !
  (  3 components have a value greater than   10.0).
  It can cause instabilities during SCF convergence.
  Action: you should check your atomic dataset (psp file)
          and look for "high" projector functions...
 
 Total charge density [el/Bohr^3]
      Maximum=    1.5144E+00  at reduced coord.    0.0000    0.0000    0.0000
      Minimum=    7.2908E-03  at reduced coord.    0.3667    0.3667    0.0000
   Integrated=    3.0000E+00
 ETOT 10  -7.3640664849738    -1.272E-12 4.407E-07 9.981E-12
 scprqt: <Vxc>= -2.5196339E-01 hartree
 
 At SCF step   10, etot is converged : 
  for the second time, diff in etot=  1.272E-12 < toldfe=  1.000E-10
 
 Cartesian components of stress tensor (hartree/bohr^3)
  sigma(1 1)= -8.68472691E-05  sigma(3 2)=  0.00000000E+00
  sigma(2 2)= -8.68472691E-05  sigma(3 1)=  0.00000000E+00
  sigma(3 3)= -8.68472691E-05  sigma(2 1)=  0.00000000E+00
 
fftdatar_write: about to write data to: abnto_TIM1_DEN with iomode IO_MODE_FORTRAN
 IO operation completed. cpu_time:       0.0 [s], walltime:       0.0 [s]
 
 PAW TEST:
 ==== Compensation charge inside spheres ============
 The following values must be close to each other ...
 Compensation charge over spherical meshes =      1.068182477500897
 Compensation charge over fine fft grid    =      1.068182109111914
 
 ==== Results concerning PAW augmentation regions ====
 
 Total pseudopotential strength Dij (hartree):
  -2.00604   0.18560   0.36282   0.00000   0.00000   0.00000   0.00000   0.00000   0.00000
   0.18560  -0.00586   0.02879   0.00000   0.00000   0.00000   0.00000   0.00000   0.00000
   0.36282   0.02879   0.27181   0.00000   0.00000   0.00000   0.00000   0.00000   0.00000
   0.00000   0.00000   0.00000  -0.00655   0.00000   0.00000  -0.02527   0.00000   0.00000
   0.00000   0.00000   0.00000   0.00000  -0.00655   0.00000   0.00000  -0.02527   0.00000
   0.00000   0.00000   0.00000   0.00000   0.00000  -0.00655   0.00000   0.00000  -0.02527
   0.00000   0.00000   0.00000  -0.02527   0.00000   0.00000  -0.09749   0.00000   0.00000
   0.00000   0.00000   0.00000   0.00000  -0.02527   0.00000   0.00000  -0.09749   0.00000
   0.00000   0.00000   0.00000   0.00000   0.00000  -0.02527   0.00000   0.00000  -0.09749
 
 
 Augmentation waves occupancies Rhoij:
   2.00963   0.10846  -0.02090   0.00000   0.00000   0.00000   0.00000   0.00000   0.00000
   0.10846   0.71113  -0.01554   0.00000   0.00000   0.00000   0.00000   0.00000   0.00000
  -0.02090  -0.01554   0.00055   0.00000   0.00000   0.00000   0.00000   0.00000   0.00000
   0.00000   0.00000   0.00000  11.16777   0.00000   0.00000  -2.25674   0.00000   0.00000
   0.00000   0.00000   0.00000   0.00000  11.16777   0.00000   0.00000  -2.25674   0.00000
   0.00000   0.00000   0.00000   0.00000   0.00000  11.16777   0.00000   0.00000  -2.25674
   0.00000   0.00000   0.00000  -2.25674   0.00000   0.00000   0.45883   0.00000   0.00000
   0.00000   0.00000   0.00000   0.00000  -2.25674   0.00000   0.00000   0.45883   0.00000
   0.00000   0.00000   0.00000   0.00000   0.00000  -2.25674   0.00000   0.00000   0.45883
 
 
 
---OUTPUT-----------------------------------------------------------------------
 
 Cartesian coordinates (xcart) [bohr]
  0.00000000000000E+00  0.00000000000000E+00  0.00000000000000E+00
 Reduced coordinates (xred)
  0.00000000000000E+00  0.00000000000000E+00  0.00000000000000E+00
 Cartesian forces (fcart) [Ha/bohr]; max,rms= 0.00000E+00 0.00000E+00 (free atoms)
  0.00000000000000E+00  0.00000000000000E+00  0.00000000000000E+00
 Reduced forces (fred)
  0.00000000000000E+00  0.00000000000000E+00  0.00000000000000E+00
 Scale of Primitive Cell (acell) [bohr]
  3.29800000000000E+00  3.29800000000000E+00  3.29800000000000E+00
 Real space primitive translations (rprimd) [bohr]
  3.29800000000000E+00  3.29800000000000E+00 -3.29800000000000E+00
 -3.29800000000000E+00  3.29800000000000E+00  3.29800000000000E+00
  3.29800000000000E+00 -3.29800000000000E+00  3.29800000000000E+00
 Unitary Cell Volume (ucvol) [Bohr^3]=  1.43486798368000E+02
 Angles (23,13,12)= [degrees]
  1.09471220634491E+02  1.09471220634491E+02  1.09471220634491E+02
 Lengths [Bohr]
  5.71230356336216E+00  5.71230356336216E+00  5.71230356336216E+00
 Stress tensor in cartesian coordinates (strten) [Ha/bohr^3]
 -8.68472691358778E-05  0.00000000000000E+00  0.00000000000000E+00
  0.00000000000000E+00 -8.68472691358780E-05  0.00000000000000E+00
  0.00000000000000E+00  0.00000000000000E+00 -8.68472691358779E-05
 Total energy (etotal) [Ha]= -7.36406648497382E+00
 fconv : at Broyd/MD step   1, gradients have not converged yet. 
  max grad (force/stress) = 8.6847E-03 > tolmxf= 5.0000E-05 ha/bohr (free atoms)
 
 Geometry Optimization Precondition:           0
Inverse hessian has been initialized.
 EXIT:           1           1
 mover: previous time step took 07 [s]
 
--- Iteration: (  2/200) Internal Cycle: (1/1)
--------------------------------------------------------------------------------
 
 Cartesian coordinates (xcart) [bohr]
  0.00000000000000E+00  0.00000000000000E+00  0.00000000000000E+00
 Reduced coordinates (xred)
  0.00000000000000E+00  0.00000000000000E+00  0.00000000000000E+00
 Scale of Primitive Cell (acell) [bohr]
  3.30659266880830E+00  3.30659266880830E+00  3.30659266880830E+00
 Real space primitive translations (rprimd) [bohr]
  3.30659266880830E+00  3.30659266880830E+00 -3.30659266880830E+00
 -3.30659266880830E+00  3.30659266880830E+00  3.30659266880830E+00
  3.30659266880830E+00 -3.30659266880830E+00  3.30659266880830E+00
 Unitary Cell Volume (ucvol) [Bohr^3]=  1.44611252251993E+02
 Angles (23,13,12)= [degrees]
  1.09471220634491E+02  1.09471220634491E+02  1.09471220634491E+02
 Lengths [Bohr]
  5.72718650231075E+00  5.72718650231075E+00  5.72718650231075E+00
 
---SELF-CONSISTENT-FIELD CONVERGENCE--------------------------------------------
 FFT (fine) grid used in SCF cycle:
 
 getcut: wavevector=  0.0000  0.0000  0.0000  ngfft=  60  60  60
         ecut(hartree)=     88.198   => boxcut(ratio)=   2.47808
 
 getcut : COMMENT -
  Note that boxcut > 2.2 ; recall that boxcut=Gcut(box)/Gcut(sphere) = 2
  is sufficient for exact treatment of convolution.
  Such a large boxcut is a waste : you could raise ecut
  e.g. ecut=  135.403412 Hartrees makes boxcut=2
 
 average electrostatic smooth potential [Ha] , [eV]      0.000000        0.000000
 
 ****** Psp strength Dij in Ha (atom      1) *****
  -2.00170   0.18488   0.36028  -0.00000  -0.00000  -0.00000  -0.00000  -0.00000  -0.00000
   0.18488  -0.00575   0.02916   0.00000   0.00000   0.00000   0.00000   0.00000   0.00000
   0.36028   0.02916   0.27299   0.00000   0.00000   0.00000   0.00000   0.00000   0.00000
  -0.00000   0.00000   0.00000  -0.00654  -0.00000   0.00000  -0.02523  -0.00000   0.00000
  -0.00000   0.00000   0.00000  -0.00000  -0.00654  -0.00000  -0.00000  -0.02523  -0.00000
  -0.00000   0.00000   0.00000   0.00000  -0.00000  -0.00654   0.00000  -0.00000  -0.02523
  -0.00000   0.00000   0.00000  -0.02523  -0.00000   0.00000  -0.09734  -0.00000   0.00000
  -0.00000   0.00000   0.00000  -0.00000  -0.02523  -0.00000  -0.00000  -0.09734  -0.00000
  -0.00000   0.00000   0.00000   0.00000  -0.00000  -0.02523   0.00000  -0.00000  -0.09734
 
 
 ITER STEP NUMBER     1
 vtorho : nnsclo_now=2, note that nnsclo,dbl_nnsclo,istep=0 0 1
 
 *********** RHOIJ (atom   1) **********
   2.00770   0.08723  -0.01405   0.00000   0.00000   0.00000   0.00000   0.00000   0.00000
   0.08723   0.70523  -0.01533   0.00000   0.00000   0.00000   0.00000   0.00000   0.00000
  -0.01405  -0.01533   0.00044   0.00000   0.00000   0.00000   0.00000   0.00000   0.00000
   0.00000   0.00000   0.00000  11.52754   0.00000   0.00000  -2.34306   0.00000   0.00000
   0.00000   0.00000   0.00000   0.00000  11.52754   0.00000   0.00000  -2.34306   0.00000
   0.00000   0.00000   0.00000   0.00000   0.00000  11.52754   0.00000   0.00000  -2.34306
   0.00000   0.00000   0.00000  -2.34306   0.00000   0.00000   0.47881   0.00000   0.00000
   0.00000   0.00000   0.00000   0.00000  -2.34306   0.00000   0.00000   0.47881   0.00000
   0.00000   0.00000   0.00000   0.00000   0.00000  -2.34306   0.00000   0.00000   0.47881
 pawio_print_ij: WARNING -
  The matrix seems to have high value(s) !
  (  3 components have a value greater than   10.0).
  It can cause instabilities during SCF convergence.
  Action: you should check your atomic dataset (psp file)
          and look for "high" projector functions...
 
 Total charge density [el/Bohr^3]
      Maximum=    1.5126E+00  at reduced coord.    0.0000    0.0000    0.0000
      Minimum=    7.2368E-03  at reduced coord.    0.3667    0.3500    0.0000
   Integrated=    3.0000E+00
 ETOT  1  -7.3641973147880    -7.364E+00 9.626E-05 5.603E-02
 scprqt: <Vxc>= -2.5205135E-01 hartree
 
Simple mixing update:
  residual square of the potential :  1.018301923376839E-007
 scfcv: previous iteration took 01 [s]
 average electrostatic smooth potential [Ha] , [eV]      0.000000        0.000000
 
 ****** Psp strength Dij in Ha (atom      1) *****
  -2.00502   0.18543   0.36223  -0.00000  -0.00000  -0.00000  -0.00000  -0.00000  -0.00000
   0.18543  -0.00583   0.02887   0.00000   0.00000   0.00000   0.00000   0.00000   0.00000
   0.36223   0.02887   0.27205   0.00000   0.00000   0.00000   0.00000   0.00000   0.00000
  -0.00000   0.00000   0.00000  -0.00655  -0.00000   0.00000  -0.02526  -0.00000   0.00000
  -0.00000   0.00000   0.00000  -0.00000  -0.00655  -0.00000  -0.00000  -0.02526  -0.00000
  -0.00000   0.00000   0.00000   0.00000  -0.00000  -0.00655   0.00000  -0.00000  -0.02526
  -0.00000   0.00000   0.00000  -0.02526  -0.00000   0.00000  -0.09744  -0.00000   0.00000
  -0.00000   0.00000   0.00000  -0.00000  -0.02526  -0.00000  -0.00000  -0.09744  -0.00000
  -0.00000   0.00000   0.00000   0.00000  -0.00000  -0.02526   0.00000  -0.00000  -0.09744
 
 
 ITER STEP NUMBER     2
 vtorho : nnsclo_now=2, note that nnsclo,dbl_nnsclo,istep=0 0 2
 
 *********** RHOIJ (atom   1) **********
   2.00925   0.10422  -0.01945   0.00000   0.00000   0.00000   0.00000   0.00000   0.00000
   0.10422   0.70712  -0.01548   0.00000   0.00000   0.00000   0.00000   0.00000   0.00000
  -0.01945  -0.01548   0.00052   0.00000   0.00000   0.00000   0.00000   0.00000   0.00000
   0.00000   0.00000   0.00000  11.20945   0.00000   0.00000  -2.26924   0.00000   0.00000
   0.00000   0.00000   0.00000   0.00000  11.20945   0.00000   0.00000  -2.26924   0.00000
   0.00000   0.00000   0.00000   0.00000   0.00000  11.20945   0.00000   0.00000  -2.26924
   0.00000   0.00000   0.00000  -2.26924   0.00000   0.00000   0.46209   0.00000   0.00000
   0.00000   0.00000   0.00000   0.00000  -2.26924   0.00000   0.00000   0.46209   0.00000
   0.00000   0.00000   0.00000   0.00000   0.00000  -2.26924   0.00000   0.00000   0.46209
 pawio_print_ij: WARNING -
  The matrix seems to have high value(s) !
  (  3 components have a value greater than   10.0).
  It can cause instabilities during SCF convergence.
  Action: you should check your atomic dataset (psp file)
          and look for "high" projector functions...
 
 Total charge density [el/Bohr^3]
[...]
  1.46E-14 6.97E-18 6.62E-14
  -0.3500 -0.4500  0.1500    1  8.87202E-15 kpt; spin; max resid(k); each band:
  2.71E-15 8.87E-15 1.58E-17
   0.2500  0.2500  0.2500    1  1.01419E-15 kpt; spin; max resid(k); each band:
  1.01E-15 1.46E-17 1.50E-17
  -0.2500  0.2500  0.2500    1  2.92618E-14 kpt; spin; max resid(k); each band:
  1.39E-14 2.93E-14 1.28E-15
  -0.3500  0.3500  0.2500    1  2.98654E-14 kpt; spin; max resid(k); each band:
  1.40E-14 2.60E-14 2.99E-14
  -0.4500  0.4500  0.2500    1  3.08508E-14 kpt; spin; max resid(k); each band:
  1.44E-14 2.31E-14 3.09E-14
  -0.3500  0.4500  0.2500    1  2.36982E-14 kpt; spin; max resid(k); each band:
  8.03E-15 2.37E-14 1.63E-17
  -0.4500 -0.4500  0.2500    1  1.30367E-13 kpt; spin; max resid(k); each band:
  7.75E-15 3.04E-17 1.30E-13
  -0.3500  0.3500  0.3500    1  1.96392E-14 kpt; spin; max resid(k); each band:
  6.58E-15 1.96E-14 1.56E-17
  -0.4500  0.4500  0.3500    1  2.08389E-14 kpt; spin; max resid(k); each band:
  9.00E-15 1.37E-14 2.08E-14
  -0.4500 -0.4500  0.3500    1  6.60588E-16 kpt; spin; max resid(k); each band:
  6.61E-16 1.45E-16 1.45E-16
  -0.4500  0.4500  0.4500    1  7.74470E-15 kpt; spin; max resid(k); each band:
  1.76E-15 7.74E-15 1.21E-17
 
 outwf: write wavefunction to file abnto_WFK, with iomode -1
 outwf with iomode: -1, cpu_time:     0.00[s], walltime:     0.07 [s]
 prteigrs : about to open file abnto_EIG
 Fermi (or HOMO) energy (hartree) =   0.10330   Average Vxc (hartree)=  -0.23181
 Eigenvalues (hartree) for nkpt=  44  k points:
 kpt#   1, nband=  3, wtk=  0.00800, kpt=  0.0500  0.0500  0.0500 (reduced coord)
  -1.72696   -0.13486    0.35393
 kpt#   2, nband=  3, wtk=  0.02400, kpt=  0.1500  0.0500  0.0500 (reduced coord)
  -1.72690   -0.11655    0.27855
 kpt#   3, nband=  3, wtk=  0.02400, kpt=  0.2500  0.0500  0.0500 (reduced coord)
  -1.72683   -0.08624    0.18589
 kpt#   4, nband=  3, wtk=  0.02400, kpt=  0.3500  0.0500  0.0500 (reduced coord)
  -1.72678   -0.04575    0.10550
 kpt#   5, nband=  3, wtk=  0.01200, kpt=  0.4500  0.0500  0.0500 (reduced coord)
  -1.72676   -0.01464    0.06083
 kpt#   6, nband=  3, wtk=  0.00600, kpt= -0.0500  0.0500  0.0500 (reduced coord)
  -1.72698   -0.14097    0.38325
 kpt#   7, nband=  3, wtk=  0.02400, kpt=  0.1500  0.1500  0.0500 (reduced coord)
  -1.72685   -0.09218    0.22943
 kpt#   8, nband=  3, wtk=  0.04800, kpt=  0.2500  0.1500  0.0500 (reduced coord)
  -1.72679   -0.05606    0.14848
 kpt#   9, nband=  3, wtk=  0.04800, kpt=  0.3500  0.1500  0.0500 (reduced coord)
  -1.72675   -0.01300    0.07945
 kpt#  10, nband=  3, wtk=  0.02400, kpt= -0.1500  0.1500  0.0500 (reduced coord)
  -1.72694   -0.12874    0.32210
 kpt#  11, nband=  3, wtk=  0.02400, kpt=  0.2500  0.2500  0.0500 (reduced coord)
  -1.72675   -0.01462    0.10546
 kpt#  12, nband=  3, wtk=  0.02400, kpt=  0.3500  0.2500  0.0500 (reduced coord)
  -1.72674    0.02310    0.06287
 kpt#  13, nband=  3, wtk=  0.02400, kpt= -0.2500  0.2500  0.0500 (reduced coord)
  -1.72687   -0.10436    0.23012
 kpt#  14, nband=  3, wtk=  0.02400, kpt= -0.1500  0.2500  0.0500 (reduced coord)
  -1.72688   -0.11038    0.27435
 kpt#  15, nband=  3, wtk=  0.02400, kpt= -0.3500  0.3500  0.0500 (reduced coord)
  -1.72680   -0.06848    0.14261
 kpt#  16, nband=  3, wtk=  0.04800, kpt= -0.2500  0.3500  0.0500 (reduced coord)
  -1.72682   -0.07997    0.18852
 kpt#  17, nband=  3, wtk=  0.02400, kpt= -0.4500  0.4500  0.0500 (reduced coord)
  -1.72676   -0.02695    0.07424
 kpt#  18, nband=  3, wtk=  0.04800, kpt= -0.3500  0.4500  0.0500 (reduced coord)
  -1.72676   -0.03916    0.10913
 kpt#  19, nband=  3, wtk=  0.02400, kpt= -0.2500  0.4500  0.0500 (reduced coord)
  -1.72676   -0.04375    0.14165
 kpt#  20, nband=  3, wtk=  0.02400, kpt= -0.4500 -0.4500  0.0500 (reduced coord)
  -1.72674   -0.00716    0.06389
 kpt#  21, nband=  3, wtk=  0.04800, kpt= -0.3500 -0.4500  0.0500 (reduced coord)
  -1.72673    0.00051    0.08137
 kpt#  22, nband=  3, wtk=  0.00800, kpt= -0.3500 -0.3500  0.0500 (reduced coord)
  -1.72672    0.04537    0.04537
 kpt#  23, nband=  3, wtk=  0.00800, kpt=  0.1500  0.1500  0.1500 (reduced coord)
  -1.72680   -0.06181    0.19443
 kpt#  24, nband=  3, wtk=  0.02400, kpt=  0.2500  0.1500  0.1500 (reduced coord)
  -1.72676   -0.02024    0.11782
 kpt#  25, nband=  3, wtk=  0.01200, kpt=  0.3500  0.1500  0.1500 (reduced coord)
  -1.72675    0.01564    0.06928
 kpt#  26, nband=  3, wtk=  0.00600, kpt= -0.1500  0.1500  0.1500 (reduced coord)
  -1.72690   -0.11644    0.30570
 kpt#  27, nband=  3, wtk=  0.02400, kpt=  0.2500  0.2500  0.1500 (reduced coord)
  -1.72674    0.02590    0.08338
 kpt#  28, nband=  3, wtk=  0.02400, kpt= -0.2500  0.2500  0.1500 (reduced coord)
  -1.72683   -0.09188    0.23468
 kpt#  29, nband=  3, wtk=  0.02400, kpt= -0.3500  0.3500  0.1500 (reduced coord)
  -1.72677   -0.05563    0.15076
 kpt#  30, nband=  3, wtk=  0.02400, kpt= -0.2500  0.3500  0.1500 (reduced coord)
  -1.72677   -0.06118    0.18934
 kpt#  31, nband=  3, wtk=  0.02400, kpt= -0.4500  0.4500  0.1500 (reduced coord)
  -1.72673   -0.01285    0.08220
 kpt#  32, nband=  3, wtk=  0.04800, kpt= -0.3500  0.4500  0.1500 (reduced coord)
  -1.72672   -0.01956    0.11953
 kpt#  33, nband=  3, wtk=  0.02400, kpt= -0.4500 -0.4500  0.1500 (reduced coord)
  -1.72670    0.01518    0.07314
 kpt#  34, nband=  3, wtk=  0.02400, kpt= -0.3500 -0.4500  0.1500 (reduced coord)
  -1.72669    0.02594    0.08195
 kpt#  35, nband=  3, wtk=  0.00200, kpt=  0.2500  0.2500  0.2500 (reduced coord)
  -1.72674    0.07598    0.07598
 kpt#  36, nband=  3, wtk=  0.00600, kpt= -0.2500  0.2500  0.2500 (reduced coord)
  -1.72677   -0.06697    0.22556
 kpt#  37, nband=  3, wtk=  0.02400, kpt= -0.3500  0.3500  0.2500 (reduced coord)
  -1.72671   -0.03006    0.16531
 kpt#  38, nband=  3, wtk=  0.02400, kpt= -0.4500  0.4500  0.2500 (reduced coord)
  -1.72668    0.01491    0.09873
 kpt#  39, nband=  3, wtk=  0.02400, kpt= -0.3500  0.4500  0.2500 (reduced coord)
  -1.72667    0.01243    0.13055
 kpt#  40, nband=  3, wtk=  0.02400, kpt= -0.4500 -0.4500  0.2500 (reduced coord)
  -1.72665    0.05190    0.08770
 kpt#  41, nband=  3, wtk=  0.00600, kpt= -0.3500  0.3500  0.3500 (reduced coord)
  -1.72666    0.00771    0.16849
 kpt#  42, nband=  3, wtk=  0.02400, kpt= -0.4500  0.4500  0.3500 (reduced coord)
  -1.72663    0.05506    0.12317
 kpt#  43, nband=  3, wtk=  0.00800, kpt= -0.4500 -0.4500  0.3500 (reduced coord)
  -1.72661    0.10082    0.10082
 kpt#  44, nband=  3, wtk=  0.00600, kpt= -0.4500  0.4500  0.4500 (reduced coord)
  -1.72659    0.10330    0.13938
 Total charge density [el/Bohr^3]
      Maximum=    1.5141E+00  at reduced coord.    0.0000    0.0000    0.0000
 Next maximum=    1.4778E+00  at reduced coord.    0.9833    0.9833    0.9833
      Minimum=    5.5350E-03  at reduced coord.    0.5000    0.5000    0.0000
 Next minimum=    5.5350E-03  at reduced coord.    0.5000    0.0000    0.5000
   Integrated=    3.0000E+00
 
 Cartesian components of stress tensor (hartree/bohr^3)
  sigma(1 1)= -6.52941285E-08  sigma(3 2)=  0.00000000E+00
  sigma(2 2)= -6.52941285E-08  sigma(3 1)=  0.00000000E+00
  sigma(3 3)= -6.52941285E-08  sigma(2 1)=  0.00000000E+00
 
-Cartesian components of stress tensor (GPa)         [Pressure=  1.9210E-03 GPa]
- sigma(1 1)= -1.92101926E-03  sigma(3 2)=  0.00000000E+00
- sigma(2 2)= -1.92101926E-03  sigma(3 1)=  0.00000000E+00
- sigma(3 3)= -1.92101926E-03  sigma(2 1)=  0.00000000E+00
 
== END DATASET(S) ==============================================================
================================================================================
  
 -outvars: echo values of variables after computation  --------
            acell      3.5799326116E+00  3.5799326116E+00  3.5799326116E+00 Bohr
              amu      6.94100000E+00
          dilatmx      1.20000000E+00
             ecut      2.93994603E+01 Hartree
           ecutsm      5.00000000E-01 Hartree
           etotal     -7.3655263854E+00
            fcart      0.0000000000E+00  0.0000000000E+00  0.0000000000E+00
-          fftalg         512
           ionmov           2
              ixc       -1012
              kpt      5.00000000E-02  5.00000000E-02  5.00000000E-02
                       1.50000000E-01  5.00000000E-02  5.00000000E-02
                       2.50000000E-01  5.00000000E-02  5.00000000E-02
                       3.50000000E-01  5.00000000E-02  5.00000000E-02
                       4.50000000E-01  5.00000000E-02  5.00000000E-02
                      -5.00000000E-02  5.00000000E-02  5.00000000E-02
                       1.50000000E-01  1.50000000E-01  5.00000000E-02
                       2.50000000E-01  1.50000000E-01  5.00000000E-02
                       3.50000000E-01  1.50000000E-01  5.00000000E-02
                      -1.50000000E-01  1.50000000E-01  5.00000000E-02
                       2.50000000E-01  2.50000000E-01  5.00000000E-02
                       3.50000000E-01  2.50000000E-01  5.00000000E-02
                      -2.50000000E-01  2.50000000E-01  5.00000000E-02
                      -1.50000000E-01  2.50000000E-01  5.00000000E-02
                      -3.50000000E-01  3.50000000E-01  5.00000000E-02
                      -2.50000000E-01  3.50000000E-01  5.00000000E-02
                      -4.50000000E-01  4.50000000E-01  5.00000000E-02
                      -3.50000000E-01  4.50000000E-01  5.00000000E-02
                      -2.50000000E-01  4.50000000E-01  5.00000000E-02
                      -4.50000000E-01 -4.50000000E-01  5.00000000E-02
                      -3.50000000E-01 -4.50000000E-01  5.00000000E-02
                      -3.50000000E-01 -3.50000000E-01  5.00000000E-02
                       1.50000000E-01  1.50000000E-01  1.50000000E-01
                       2.50000000E-01  1.50000000E-01  1.50000000E-01
                       3.50000000E-01  1.50000000E-01  1.50000000E-01
                      -1.50000000E-01  1.50000000E-01  1.50000000E-01
                       2.50000000E-01  2.50000000E-01  1.50000000E-01
                      -2.50000000E-01  2.50000000E-01  1.50000000E-01
                      -3.50000000E-01  3.50000000E-01  1.50000000E-01
                      -2.50000000E-01  3.50000000E-01  1.50000000E-01
                      -4.50000000E-01  4.50000000E-01  1.50000000E-01
                      -3.50000000E-01  4.50000000E-01  1.50000000E-01
                      -4.50000000E-01 -4.50000000E-01  1.50000000E-01
                      -3.50000000E-01 -4.50000000E-01  1.50000000E-01
                       2.50000000E-01  2.50000000E-01  2.50000000E-01
                      -2.50000000E-01  2.50000000E-01  2.50000000E-01
                      -3.50000000E-01  3.50000000E-01  2.50000000E-01
                      -4.50000000E-01  4.50000000E-01  2.50000000E-01
                      -3.50000000E-01  4.50000000E-01  2.50000000E-01
                      -4.50000000E-01 -4.50000000E-01  2.50000000E-01
                      -3.50000000E-01  3.50000000E-01  3.50000000E-01
                      -4.50000000E-01  4.50000000E-01  3.50000000E-01
                      -4.50000000E-01 -4.50000000E-01  3.50000000E-01
                      -4.50000000E-01  4.50000000E-01  4.50000000E-01
         kptrlatt       10    0    0      0   10    0      0    0   10
          kptrlen      5.71230356E+01
P           mkmem          44
            natom           1
            nband           3
            ngfft          36      36      36
          ngfftdg          60      60      60
             nkpt          44
            nstep         100
             nsym          48
            ntime         200
           ntypat           1
              occ      2.000000  1.000000  0.000000
          optcell           1
        pawecutdg      8.81983810E+01 Hartree
            rprim      1.0000000000E+00  1.0000000000E+00 -1.0000000000E+00
                      -1.0000000000E+00  1.0000000000E+00  1.0000000000E+00
                       1.0000000000E+00 -1.0000000000E+00  1.0000000000E+00
           shiftk      5.00000000E-01  5.00000000E-01  5.00000000E-01
          spgroup         229
           strten     -6.5294128510E-08 -6.5294128509E-08 -6.5294128510E-08
                       0.0000000000E+00  0.0000000000E+00  0.0000000000E+00
           symrel      1  0  0   0  1  0   0  0  1      -1  0  0   0 -1  0   0  0 -1
                      -1 -1 -1   0  0  1   0  1  0       1  1  1   0  0 -1   0 -1  0
                       0  1  0   1  0  0  -1 -1 -1       0 -1  0  -1  0  0   1  1  1
                       0  0  1  -1 -1 -1   1  0  0       0  0 -1   1  1  1  -1  0  0
                       0  1  0   1  0  0   0  0  1       0 -1  0  -1  0  0   0  0 -1
                      -1 -1 -1   0  0  1   1  0  0       1  1  1   0  0 -1  -1  0  0
                       1  0  0   0  1  0  -1 -1 -1      -1  0  0   0 -1  0   1  1  1
                       0  0  1  -1 -1 -1   0  1  0       0  0 -1   1  1  1   0 -1  0
                      -1 -1 -1   1  0  0   0  0  1       1  1  1  -1  0  0   0  0 -1
                       0  1  0   0  0  1   1  0  0       0 -1  0   0  0 -1  -1  0  0
                       1  0  0  -1 -1 -1   0  1  0      -1  0  0   1  1  1   0 -1  0
                       0  0  1   0  1  0  -1 -1 -1       0  0 -1   0 -1  0   1  1  1
                       1  0  0  -1 -1 -1   0  0  1      -1  0  0   1  1  1   0  0 -1
                       0  1  0   0  0  1  -1 -1 -1       0 -1  0   0  0 -1   1  1  1
                      -1 -1 -1   1  0  0   0  1  0       1  1  1  -1  0  0   0 -1  0
                       0  0  1   0  1  0   1  0  0       0  0 -1   0 -1  0  -1  0  0
                       0  1  0  -1 -1 -1   0  0  1       0 -1  0   1  1  1   0  0 -1
                       1  0  0   0  0  1  -1 -1 -1      -1  0  0   0  0 -1   1  1  1
                      -1 -1 -1   0  1  0   1  0  0       1  1  1   0 -1  0  -1  0  0
                       0  0  1   1  0  0   0  1  0       0  0 -1  -1  0  0   0 -1  0
                      -1 -1 -1   0  1  0   0  0  1       1  1  1   0 -1  0   0  0 -1
                       1  0  0   0  0  1   0  1  0      -1  0  0   0  0 -1   0 -1  0
                       0  1  0  -1 -1 -1   1  0  0       0 -1  0   1  1  1  -1  0  0
                       0  0  1   1  0  0  -1 -1 -1       0  0 -1  -1  0  0   1  1  1
           toldfe      1.00000000E-10 Hartree
           tsmear      7.34986508E-04 Hartree
            typat      1
           useylm           1
              wtk        0.00800    0.02400    0.02400    0.02400    0.01200    0.00600
                         0.02400    0.04800    0.04800    0.02400    0.02400    0.02400
                         0.02400    0.02400    0.02400    0.04800    0.02400    0.04800
                         0.02400    0.02400    0.04800    0.00800    0.00800    0.02400
                         0.01200    0.00600    0.02400    0.02400    0.02400    0.02400
                         0.02400    0.04800    0.02400    0.02400    0.00200    0.00600
                         0.02400    0.02400    0.02400    0.02400    0.00600    0.02400
                         0.00800    0.00600
            znucl        3.00000
 
================================================================================
  

================================================================================

 Suggested references for the acknowledgment of ABINIT usage.

 The users of ABINIT have little formal obligations with respect to the ABINIT group
 (those specified in the GNU General Public License, http://www.gnu.org/copyleft/gpl.txt).
 However, it is common practice in the scientific literature,
 to acknowledge the efforts of people that have made the research possible.
 In this spirit, please find below suggested citations of work written by ABINIT developers,
 corresponding to implementations inside of ABINIT that you have used in the present run.
 Note also that it will be of great value to readers of publications presenting these results,
 to read papers enabling them to understand the theoretical formalism and details
 of the ABINIT implementation.
 For information on why they are suggested, see also http://www.abinit.org/about/?text=acknowledgments.
-
- [1] Implementation of the Projector Augmented-Wave Method in the ABINIT code.
- M. Torrent, F. Jollet, F. Bottin, G. Zerah, and X. Gonze Comput. Mat. Science 42, 337, (2008).
- Comment : PAW calculations. Strong suggestion to cite this paper.
-
- [2] Libxc: A library of exchange and correlation functionals for density functional theory.
- M.A.L. Marques, M.J.T. Oliveira, T. Burnus, Computer Physics Communications 183, 2227 (2012).
- Comment : to be cited when LibXC is used (negative value of ixc)
- Strong suggestion to cite this paper.
-
- [3] Recent developments in the ABINIT software package.
- Computer Phys. Comm. 205, 106 (2016).
- X.Gonze, F.Jollet, F.Abreu Araujo, D.Adams, B.Amadon, T.Applencourt,
- C.Audouze, J.-M.Beuken, J.Bieder, A.Bokhanchuk, E.Bousquet, F.Bruneval
- D.Caliste, M.Cote, F.Dahm, F.Da Pieve, M.Delaveau, M.Di Gennaro,
- B.Dorado, C.Espejo, G.Geneste, L.Genovese, A.Gerossier, M.Giantomassi,
- Y.Gillet, D.R.Hamann, L.He, G.Jomard, J.Laflamme Janssen, S.Le Roux,
- A.Levitt, A.Lherbier, F.Liu, I.Lukacevic, A.Martin, C.Martins,
- M.J.T.Oliveira, S.Ponce, Y.Pouillon, T.Rangel, G.-M.Rignanese,
- A.H.Romero, B.Rousseau, O.Rubel, A.A.Shukri, M.Stankovski, M.Torrent,
- M.J.Van Setten, B.Van Troeye, M.J.Verstraete, D.Waroquier, J.Wiktor,
- B.Xue, A.Zhou, J.W.Zwanziger.
- Comment : the fourth generic paper describing the ABINIT project.
- Note that a version of this paper, that is not formatted for Computer Phys. Comm. 
- is available at http://www.abinit.org/about/ABINIT16.pdf .
- The licence allows the authors to put it on the Web.
-
- [4] ABINIT : First-principles approach of materials and nanosystem properties.
- Computer Phys. Comm. 180, 2582-2615 (2009).
- X. Gonze, B. Amadon, P.-M. Anglade, J.-M. Beuken, F. Bottin, P. Boulanger, F. Bruneval,
- D. Caliste, R. Caracas, M. Cote, T. Deutsch, L. Genovese, Ph. Ghosez, M. Giantomassi
- S. Goedecker, D.R. Hamann, P. Hermet, F. Jollet, G. Jomard, S. Leroux, M. Mancini, S. Mazevet,
- M.J.T. Oliveira, G. Onida, Y. Pouillon, T. Rangel, G.-M. Rignanese, D. Sangalli, R. Shaltaf,
- M. Torrent, M.J. Verstraete, G. Zerah, J.W. Zwanziger
- Comment : the third generic paper describing the ABINIT project.
- Note that a version of this paper, that is not formatted for Computer Phys. Comm. 
- is available at http://www.abinit.org/about/ABINIT_CPC_v10.pdf .
- The licence allows the authors to put it on the Web.
-
- [5] A brief introduction to the ABINIT software package.
- Z. Kristallogr. 220, 558-562 (2005).
- X. Gonze, G.-M. Rignanese, M. Verstraete, J.-M. Beuken, Y. Pouillon, R. Caracas, F. Jollet,
- M. Torrent, G. Zerah, M. Mikami, Ph. Ghosez, M. Veithen, J.-Y. Raty, V. Olevano, F. Bruneval,
- L. Reining, R. Godby, G. Onida, D.R. Hamann, and D.C. Allan.
- Comment : the second generic paper describing the ABINIT project. Note that this paper
- should be cited especially if you are using the GW part of ABINIT, as several authors
- of this part are not in the list of authors of the first or third paper.
- The .pdf of the latter paper is available at http://www.abinit.org/about/zfk_0505-06_558-562.pdf.
- Note that it should not redistributed (Copyright by Oldenburg Wissenshaftverlag,
- the licence allows the authors to put it on the Web).
 Proc.   0 individual time (sec): cpu=         44.0  wall=         44.2
 
 Calculation completed.
.Delivered  20 WARNINGs and   8 COMMENTs to log file.

--- !FinalSummary
program: abinit
version: 8.0.8
start_datetime: Mon Nov 21 21:24:22 2016
end_datetime: Mon Nov 21 21:25:06 2016
overall_cpu_time:          44.0
overall_wall_time:          44.2
exit_requested_by_user: no 
timelimit: 0
pseudos: 
    Li  : 7fc6473512a6a2d2db1bb65323c34d8d
usepaw: 1
mpi_procs: 1
omp_threads: 1
num_warnings: 20
num_comments: 8
...
